BEGIN_INFO
# Generated by c2x
# Primitive Cell                          
# Units: eV and Angstrom^-1
  Fermi Energy: 7.523292
END_INFO

BEGIN_BLOCK_BANDGRID_3D
Comment
BEGIN_BANDGRID_3D_eV
  186
    11   11   11
  0.0 0.0 0.0
   0.085651   0.118340  0.081616
  -0.085651   0.118340  -0.081616
   0.000160  -0.000000  0.164221
  BAND:   1
    -16.974473  -16.974417  -16.974276  -16.974095  -16.973939
    -16.973875  -16.973939  -16.974095  -16.974276  -16.974417
    -16.974473  -16.974376  -16.974385  -16.974297  -16.974140
    -16.973963  -16.973832  -16.973816  -16.973926  -16.974104
    -16.974274  -16.974376  -16.974122  -16.974187  -16.974157
    -16.974047  -16.973883  -16.973718  -16.973623  -16.973650
    -16.973798  -16.973980  -16.974122  -16.973758  -16.973866
    -16.973894  -16.973844  -16.973724  -16.973566  -16.973419
    -16.973346  -16.973420  -16.973589  -16.973758  -16.973329
    -16.973474  -16.973560  -16.973578  -16.973533  -16.973435
    -16.973303  -16.973154  -16.973060  -16.973157  -16.973329
    -16.972899  -16.973056  -16.973196  -16.973299  -16.973361
    -16.973380  -16.973361  -16.973299  -16.973196  -16.973056
    -16.972899  -16.973329  -16.973157  -16.973060  -16.973154
    -16.973303  -16.973435  -16.973533  -16.973578  -16.973560
    -16.973474  -16.973329  -16.973758  -16.973589  -16.973420
    -16.973346  -16.973419  -16.973566  -16.973724  -16.973844
    -16.973894  -16.973866  -16.973758  -16.974122  -16.973980
    -16.973798  -16.973650  -16.973623  -16.973718  -16.973883
    -16.974047  -16.974157  -16.974187  -16.974122  -16.974376
    -16.974274  -16.974104  -16.973926  -16.973816  -16.973832
    -16.973963  -16.974140  -16.974297  -16.974385  -16.974376
    -16.974473  -16.974417  -16.974276  -16.974095  -16.973939
    -16.973875  -16.973939  -16.974095  -16.974276  -16.974417
    -16.974473  -16.974376  -16.974274  -16.974104  -16.973926
    -16.973816  -16.973832  -16.973963  -16.974140  -16.974297
    -16.974385  -16.974376  -16.974267  -16.974217  -16.974079
    -16.973896  -16.973734  -16.973665  -16.973734  -16.973896
    -16.974079  -16.974217  -16.974267  -16.974019  -16.974027
    -16.973942  -16.973786  -16.973600  -16.973459  -16.973435
    -16.973553  -16.973741  -16.973913  -16.974019  -16.973681
    -16.973750  -16.973729  -16.973624  -16.973467  -16.973293
    -16.973161  -16.973177  -16.973340  -16.973532  -16.973681
    -16.973297  -16.973420  -16.973476  -16.973458  -16.973386
    -16.973267  -16.973126  -16.972980  -16.972932  -16.973121
    -16.973297  -16.972965  -16.973094  -16.973238  -16.973336
    -16.973390  -16.973399  -16.973368  -16.973299  -16.973204
    -16.973081  -16.972965  -16.973358  -16.973224  -16.973220
    -16.973350  -16.973484  -16.973592  -16.973651  -16.973659
    -16.973610  -16.973501  -16.973358  -16.973761  -16.973602
    -16.973487  -16.973505  -16.973627  -16.973776  -16.973894
    -16.973967  -16.973968  -16.973896  -16.973761  -16.974102
    -16.973938  -16.973776  -16.973699  -16.973751  -16.973892
    -16.974048  -16.974170  -16.974230  -16.974206  -16.974102
    -16.974321  -16.974174  -16.973995  -16.973856  -16.973826
    -16.973918  -16.974075  -16.974238  -16.974350  -16.974381
    -16.974321  -16.974376  -16.974274  -16.974104  -16.973926
    -16.973816  -16.973832  -16.973963  -16.974140  -16.974297
    -16.974385  -16.974376  -16.974122  -16.973980  -16.973798
    -16.973650  -16.973623  -16.973718  -16.973883  -16.974047
    -16.974157  -16.974187  -16.974122  -16.974019  -16.973913
    -16.973741  -16.973553  -16.973435  -16.973459  -16.973600
    -16.973786  -16.973942  -16.974027  -16.974019  -16.973819
    -16.973772  -16.973634  -16.973445  -16.973261  -16.973177
    -16.973261  -16.973445  -16.973634  -16.973772  -16.973819
    -16.973561  -16.973577  -16.973510  -16.973367  -16.973189
    -16.973009  -16.972933  -16.973084  -16.973287  -16.973459
    -16.973561  -16.973269  -16.973360  -16.973385  -16.973345
    -16.973265  -16.973160  -16.973051  -16.972962  -16.972981
    -16.973127  -16.973269  -16.973044  -16.973171  -16.973307
    -16.973394  -16.973429  -16.973425  -16.973390  -16.973326
    -16.973236  -16.973123  -16.973044  -16.973352  -16.973280
    -16.973362  -16.973497  -16.973609  -16.973679  -16.973699
    -16.973673  -16.973602  -16.973484  -16.973352  -16.973683
    -16.973550  -16.973520  -16.973610  -16.973747  -16.973865
    -16.973941  -16.973963  -16.973922  -16.973824  -16.973683
    -16.973948  -16.973788  -16.973676  -16.973688  -16.973800
    -16.973941  -16.974069  -16.974140  -16.974145  -16.974077
    -16.973948  -16.974102  -16.973938  -16.973776  -16.973699
    -16.973751  -16.973892  -16.974048  -16.974170  -16.974230
    -16.974206  -16.974102  -16.974122  -16.973980  -16.973798
    -16.973650  -16.973623  -16.973718  -16.973883  -16.974047
    -16.974157  -16.974187  -16.974122  -16.973758  -16.973589
    -16.973420  -16.973346  -16.973419  -16.973566  -16.973724
    -16.973844  -16.973894  -16.973866  -16.973758  -16.973681
    -16.973532  -16.973340  -16.973177  -16.973161  -16.973293
    -16.973467  -16.973624  -16.973729  -16.973750  -16.973681
    -16.973561  -16.973459  -16.973287  -16.973084  -16.972933
    -16.973009  -16.973189  -16.973367  -16.973510  -16.973577
    -16.973561  -16.973412  -16.973374  -16.973275  -16.973130
    -16.972984  -16.972903  -16.972984  -16.973130  -16.973275
    -16.973374  -16.973412  -16.973241  -16.973289  -16.973299
    -16.973268  -16.973216  -16.973159  -16.973115  -16.973095
    -16.973110  -16.973166  -16.973241  -16.973101  -16.973235
    -16.973358  -16.973429  -16.973447  -16.973433  -16.973393
    -16.973336  -16.973259  -16.973157  -16.973101  -16.973301
    -16.973309  -16.973435  -16.973561  -16.973636  -16.973665
    -16.973654  -16.973606  -16.973527  -16.973412  -16.973301
    -16.973526  -16.973445  -16.973499  -16.973629  -16.973748
    -16.973821  -16.973849  -16.973830  -16.973763  -16.973655
    -16.973526  -16.973683  -16.973550  -16.973520  -16.973610
    -16.973747  -16.973865  -16.973941  -16.973963  -16.973922
    -16.973824  -16.973683  -16.973761  -16.973602  -16.973487
    -16.973505  -16.973627  -16.973776  -16.973894  -16.973967
    -16.973968  -16.973896  -16.973761  -16.973758  -16.973589
    -16.973420  -16.973346  -16.973419  -16.973566  -16.973724
    -16.973844  -16.973894  -16.973866  -16.973758  -16.973329
    -16.973157  -16.973060  -16.973154  -16.973303  -16.973435
    -16.973533  -16.973578  -16.973560  -16.973474  -16.973329
    -16.973297  -16.973121  -16.972932  -16.972980  -16.973126
    -16.973267  -16.973386  -16.973458  -16.973476  -16.973420
    -16.973297  -16.973269  -16.973127  -16.972981  -16.972962
    -16.973051  -16.973160  -16.973265  -16.973345  -16.973385
    -16.973360  -16.973269  -16.973241  -16.973166  -16.973110
    -16.973095  -16.973115  -16.973159  -16.973216  -16.973268
    -16.973299  -16.973289  -16.973241  -16.973182  -16.973210
    -16.973245  -16.973261  -16.973260  -16.973258  -16.973260
    -16.973261  -16.973245  -16.973210  -16.973182  -16.973120
    -16.973256  -16.973361  -16.973412  -16.973425  -16.973414
    -16.973386  -16.973347  -16.973278  -16.973185  -16.973120
    -16.973202  -16.973296  -16.973436  -16.973525  -16.973564
    -16.973566  -16.973536  -16.973485  -16.973403  -16.973291
    -16.973202  -16.973301  -16.973309  -16.973435  -16.973561
    -16.973636  -16.973665  -16.973654  -16.973606  -16.973527
    -16.973412  -16.973301  -16.973352  -16.973280  -16.973362
    -16.973497  -16.973609  -16.973679  -16.973699  -16.973673
    -16.973602  -16.973484  -16.973352  -16.973358  -16.973224
    -16.973220  -16.973350  -16.973484  -16.973592  -16.973651
    -16.973659  -16.973610  -16.973501  -16.973358  -16.973329
    -16.973157  -16.973060  -16.973154  -16.973303  -16.973435
    -16.973533  -16.973578  -16.973560  -16.973474  -16.973329
    -16.972899  -16.973056  -16.973196  -16.973299  -16.973361
    -16.973381  -16.973361  -16.973299  -16.973196  -16.973056
    -16.972899  -16.972965  -16.973081  -16.973204  -16.973299
    -16.973368  -16.973399  -16.973390  -16.973336  -16.973238
    -16.973094  -16.972965  -16.973044  -16.973123  -16.973236
    -16.973326  -16.973390  -16.973425  -16.973429  -16.973394
    -16.973307  -16.973171  -16.973044  -16.973101  -16.973157
    -16.973259  -16.973336  -16.973393  -16.973433  -16.973447
    -16.973429  -16.973358  -16.973235  -16.973101  -16.973120
    -16.973185  -16.973278  -16.973347  -16.973386  -16.973414
    -16.973425  -16.973412  -16.973361  -16.973256  -16.973120
    -16.973091  -16.973226  -16.973320  -16.973373  -16.973392
    -16.973397  -16.973392  -16.973373  -16.973320  -16.973226
    -16.973091  -16.973120  -16.973256  -16.973361  -16.973412
    -16.973425  -16.973414  -16.973386  -16.973347  -16.973278
    -16.973185  -16.973120  -16.973101  -16.973235  -16.973358
    -16.973429  -16.973447  -16.973433  -16.973393  -16.973336
    -16.973259  -16.973157  -16.973101  -16.973044  -16.973171
    -16.973307  -16.973394  -16.973429  -16.973425  -16.973390
    -16.973326  -16.973236  -16.973123  -16.973044  -16.972965
    -16.973094  -16.973238  -16.973336  -16.973390  -16.973399
    -16.973368  -16.973299  -16.973204  -16.973081  -16.972965
    -16.972899  -16.973056  -16.973196  -16.973299  -16.973361
    -16.973381  -16.973361  -16.973299  -16.973196  -16.973056
    -16.972899  -16.973329  -16.973474  -16.973560  -16.973578
    -16.973533  -16.973435  -16.973303  -16.973154  -16.973060
    -16.973157  -16.973329  -16.973358  -16.973501  -16.973610
    -16.973659  -16.973651  -16.973592  -16.973484  -16.973350
    -16.973220  -16.973224  -16.973358  -16.973352  -16.973484
    -16.973602  -16.973673  -16.973699  -16.973679  -16.973609
    -16.973497  -16.973362  -16.973280  -16.973352  -16.973301
    -16.973412  -16.973527  -16.973606  -16.973654  -16.973665
    -16.973636  -16.973561  -16.973435  -16.973309  -16.973301
    -16.973202  -16.973291  -16.973403  -16.973485  -16.973536
    -16.973566  -16.973564  -16.973525  -16.973436  -16.973296
    -16.973202  -16.973120  -16.973185  -16.973278  -16.973347
    -16.973386  -16.973414  -16.973425  -16.973412  -16.973361
    -16.973256  -16.973120  -16.973182  -16.973210  -16.973245
    -16.973261  -16.973260  -16.973258  -16.973260  -16.973261
    -16.973245  -16.973210  -16.973182  -16.973241  -16.973289
    -16.973299  -16.973268  -16.973216  -16.973159  -16.973115
    -16.973095  -16.973110  -16.973166  -16.973241  -16.973269
    -16.973360  -16.973385  -16.973345  -16.973265  -16.973160
    -16.973051  -16.972962  -16.972981  -16.973127  -16.973269
    -16.973297  -16.973420  -16.973476  -16.973458  -16.973386
    -16.973267  -16.973126  -16.972980  -16.972932  -16.973121
    -16.973297  -16.973329  -16.973474  -16.973560  -16.973578
    -16.973533  -16.973435  -16.973303  -16.973154  -16.973060
    -16.973157  -16.973329  -16.973758  -16.973866  -16.973894
    -16.973844  -16.973724  -16.973566  -16.973419  -16.973346
    -16.973420  -16.973589  -16.973758  -16.973761  -16.973896
    -16.973968  -16.973967  -16.973894  -16.973776  -16.973627
    -16.973505  -16.973487  -16.973602  -16.973761  -16.973683
    -16.973824  -16.973922  -16.973963  -16.973941  -16.973865
    -16.973747  -16.973610  -16.973520  -16.973550  -16.973683
    -16.973526  -16.973655  -16.973763  -16.973830  -16.973849
    -16.973821  -16.973748  -16.973629  -16.973499  -16.973445
    -16.973526  -16.973301  -16.973412  -16.973527  -16.973606
    -16.973654  -16.973665  -16.973636  -16.973561  -16.973435
    -16.973309  -16.973301  -16.973101  -16.973157  -16.973259
    -16.973336  -16.973393  -16.973433  -16.973447  -16.973429
    -16.973358  -16.973235  -16.973101  -16.973241  -16.973166
    -16.973110  -16.973095  -16.973115  -16.973159  -16.973216
    -16.973268  -16.973299  -16.973289  -16.973241  -16.973412
    -16.973374  -16.973275  -16.973130  -16.972984  -16.972903
    -16.972984  -16.973130  -16.973275  -16.973374  -16.973412
    -16.973561  -16.973577  -16.973510  -16.973367  -16.973189
    -16.973009  -16.972933  -16.973084  -16.973287  -16.973459
    -16.973561  -16.973681  -16.973750  -16.973729  -16.973624
    -16.973467  -16.973293  -16.973161  -16.973177  -16.973340
    -16.973532  -16.973681  -16.973758  -16.973866  -16.973894
    -16.973844  -16.973724  -16.973566  -16.973419  -16.973346
    -16.973420  -16.973589  -16.973758  -16.974122  -16.974187
    -16.974157  -16.974047  -16.973883  -16.973718  -16.973623
    -16.973650  -16.973798  -16.973980  -16.974122  -16.974102
    -16.974206  -16.974230  -16.974170  -16.974048  -16.973892
    -16.973751  -16.973699  -16.973776  -16.973938  -16.974102
    -16.973948  -16.974077  -16.974145  -16.974140  -16.974069
    -16.973941  -16.973800  -16.973688  -16.973676  -16.973788
    -16.973948  -16.973683  -16.973824  -16.973922  -16.973963
    -16.973941  -16.973865  -16.973747  -16.973610  -16.973520
    -16.973550  -16.973683  -16.973352  -16.973484  -16.973602
    -16.973673  -16.973699  -16.973679  -16.973609  -16.973497
    -16.973362  -16.973280  -16.973352  -16.973044  -16.973123
    -16.973236  -16.973326  -16.973390  -16.973425  -16.973429
    -16.973394  -16.973307  -16.973171  -16.973044  -16.973269
    -16.973127  -16.972981  -16.972962  -16.973051  -16.973160
    -16.973265  -16.973345  -16.973385  -16.973360  -16.973269
    -16.973561  -16.973459  -16.973287  -16.973084  -16.972933
    -16.973009  -16.973189  -16.973367  -16.973510  -16.973577
    -16.973561  -16.973819  -16.973772  -16.973634  -16.973445
    -16.973261  -16.973177  -16.973261  -16.973445  -16.973634
    -16.973772  -16.973819  -16.974019  -16.974027  -16.973942
    -16.973786  -16.973600  -16.973459  -16.973435  -16.973553
    -16.973741  -16.973913  -16.974019  -16.974122  -16.974187
    -16.974157  -16.974047  -16.973883  -16.973718  -16.973623
    -16.973650  -16.973798  -16.973980  -16.974122  -16.974376
    -16.974385  -16.974297  -16.974140  -16.973963  -16.973832
    -16.973816  -16.973926  -16.974104  -16.974274  -16.974376
    -16.974321  -16.974381  -16.974350  -16.974238  -16.974075
    -16.973918  -16.973826  -16.973856  -16.973995  -16.974174
    -16.974321  -16.974102  -16.974206  -16.974230  -16.974170
    -16.974048  -16.973892  -16.973751  -16.973699  -16.973776
    -16.973938  -16.974102  -16.973761  -16.973896  -16.973968
    -16.973967  -16.973894  -16.973776  -16.973627  -16.973505
    -16.973487  -16.973602  -16.973761  -16.973358  -16.973501
    -16.973610  -16.973659  -16.973651  -16.973592  -16.973484
    -16.973350  -16.973220  -16.973224  -16.973358  -16.972965
    -16.973081  -16.973204  -16.973299  -16.973368  -16.973399
    -16.973390  -16.973336  -16.973238  -16.973094  -16.972965
    -16.973297  -16.973121  -16.972932  -16.972980  -16.973126
    -16.973267  -16.973386  -16.973458  -16.973476  -16.973420
    -16.973297  -16.973681  -16.973532  -16.973340  -16.973177
    -16.973161  -16.973293  -16.973467  -16.973624  -16.973729
    -16.973750  -16.973681  -16.974019  -16.973913  -16.973741
    -16.973553  -16.973435  -16.973459  -16.973600  -16.973786
    -16.973942  -16.974027  -16.974019  -16.974267  -16.974217
    -16.974079  -16.973896  -16.973734  -16.973665  -16.973734
    -16.973896  -16.974079  -16.974217  -16.974267  -16.974376
    -16.974385  -16.974297  -16.974140  -16.973963  -16.973832
    -16.973816  -16.973926  -16.974104  -16.974274  -16.974376
    -16.974473  -16.974417  -16.974276  -16.974095  -16.973939
    -16.973875  -16.973939  -16.974095  -16.974276  -16.974417
    -16.974473  -16.974376  -16.974385  -16.974297  -16.974140
    -16.973963  -16.973832  -16.973816  -16.973926  -16.974104
    -16.974274  -16.974376  -16.974122  -16.974187  -16.974157
    -16.974047  -16.973883  -16.973718  -16.973623  -16.973650
    -16.973798  -16.973980  -16.974122  -16.973758  -16.973866
    -16.973894  -16.973844  -16.973724  -16.973566  -16.973419
    -16.973346  -16.973420  -16.973589  -16.973758  -16.973329
    -16.973474  -16.973560  -16.973578  -16.973533  -16.973435
    -16.973303  -16.973154  -16.973060  -16.973157  -16.973329
    -16.972899  -16.973056  -16.973196  -16.973299  -16.973361
    -16.973380  -16.973361  -16.973299  -16.973196  -16.973056
    -16.972899  -16.973329  -16.973157  -16.973060  -16.973154
    -16.973303  -16.973435  -16.973533  -16.973578  -16.973560
    -16.973474  -16.973329  -16.973758  -16.973589  -16.973420
    -16.973346  -16.973419  -16.973566  -16.973724  -16.973844
    -16.973894  -16.973866  -16.973758  -16.974122  -16.973980
    -16.973798  -16.973650  -16.973623  -16.973718  -16.973883
    -16.974047  -16.974157  -16.974187  -16.974122  -16.974376
    -16.974274  -16.974104  -16.973926  -16.973816  -16.973832
    -16.973963  -16.974140  -16.974297  -16.974385  -16.974376
    -16.974473  -16.974417  -16.974276  -16.974095  -16.973939
    -16.973875  -16.973939  -16.974095  -16.974276  -16.974417
    -16.974473
  BAND:   2
    -16.974472  -16.974416  -16.974276  -16.974095  -16.973939
    -16.973875  -16.973939  -16.974095  -16.974276  -16.974416
    -16.974472  -16.974376  -16.974385  -16.974297  -16.974140
    -16.973963  -16.973832  -16.973816  -16.973926  -16.974104
    -16.974274  -16.974376  -16.974122  -16.974187  -16.974157
    -16.974047  -16.973883  -16.973718  -16.973623  -16.973650
    -16.973798  -16.973980  -16.974122  -16.973758  -16.973866
    -16.973894  -16.973844  -16.973724  -16.973566  -16.973418
    -16.973346  -16.973419  -16.973589  -16.973758  -16.973329
    -16.973473  -16.973560  -16.973578  -16.973533  -16.973435
    -16.973303  -16.973154  -16.973060  -16.973157  -16.973329
    -16.972899  -16.973056  -16.973196  -16.973299  -16.973361
    -16.973380  -16.973361  -16.973299  -16.973196  -16.973056
    -16.972899  -16.973329  -16.973157  -16.973060  -16.973154
    -16.973303  -16.973435  -16.973533  -16.973578  -16.973560
    -16.973473  -16.973329  -16.973758  -16.973589  -16.973419
    -16.973346  -16.973418  -16.973566  -16.973724  -16.973844
    -16.973894  -16.973866  -16.973758  -16.974122  -16.973980
    -16.973798  -16.973650  -16.973623  -16.973718  -16.973883
    -16.974047  -16.974157  -16.974187  -16.974122  -16.974376
    -16.974274  -16.974104  -16.973926  -16.973816  -16.973832
    -16.973963  -16.974140  -16.974297  -16.974385  -16.974376
    -16.974472  -16.974416  -16.974276  -16.974095  -16.973939
    -16.973875  -16.973939  -16.974095  -16.974276  -16.974416
    -16.974472  -16.974376  -16.974274  -16.974104  -16.973926
    -16.973816  -16.973832  -16.973963  -16.974140  -16.974297
    -16.974385  -16.974376  -16.974266  -16.974217  -16.974079
    -16.973896  -16.973734  -16.973664  -16.973734  -16.973896
    -16.974079  -16.974217  -16.974266  -16.974019  -16.974027
    -16.973942  -16.973786  -16.973600  -16.973458  -16.973434
    -16.973553  -16.973740  -16.973913  -16.974019  -16.973681
    -16.973750  -16.973729  -16.973624  -16.973467  -16.973293
    -16.973161  -16.973177  -16.973340  -16.973532  -16.973681
    -16.973297  -16.973420  -16.973476  -16.973458  -16.973386
    -16.973267  -16.973126  -16.972980  -16.972932  -16.973121
    -16.973297  -16.972965  -16.973094  -16.973238  -16.973336
    -16.973390  -16.973399  -16.973368  -16.973299  -16.973203
    -16.973081  -16.972965  -16.973358  -16.973224  -16.973220
    -16.973350  -16.973484  -16.973592  -16.973651  -16.973659
    -16.973609  -16.973501  -16.973358  -16.973761  -16.973602
    -16.973487  -16.973505  -16.973627  -16.973776  -16.973894
    -16.973967  -16.973968  -16.973896  -16.973761  -16.974102
    -16.973938  -16.973776  -16.973699  -16.973751  -16.973892
    -16.974048  -16.974170  -16.974230  -16.974206  -16.974102
    -16.974321  -16.974174  -16.973995  -16.973856  -16.973826
    -16.973918  -16.974074  -16.974238  -16.974350  -16.974380
    -16.974321  -16.974376  -16.974274  -16.974104  -16.973926
    -16.973816  -16.973832  -16.973963  -16.974140  -16.974297
    -16.974385  -16.974376  -16.974122  -16.973980  -16.973798
    -16.973650  -16.973623  -16.973718  -16.973883  -16.974047
    -16.974157  -16.974187  -16.974122  -16.974019  -16.973913
    -16.973740  -16.973553  -16.973434  -16.973458  -16.973600
    -16.973786  -16.973942  -16.974027  -16.974019  -16.973819
    -16.973772  -16.973634  -16.973445  -16.973261  -16.973177
    -16.973261  -16.973445  -16.973634  -16.973772  -16.973819
    -16.973561  -16.973577  -16.973510  -16.973367  -16.973189
    -16.973009  -16.972933  -16.973084  -16.973287  -16.973459
    -16.973561  -16.973269  -16.973360  -16.973385  -16.973345
    -16.973265  -16.973160  -16.973051  -16.972962  -16.972980
    -16.973127  -16.973269  -16.973044  -16.973171  -16.973307
    -16.973394  -16.973429  -16.973425  -16.973390  -16.973326
    -16.973236  -16.973123  -16.973044  -16.973352  -16.973280
    -16.973362  -16.973497  -16.973609  -16.973678  -16.973699
    -16.973673  -16.973602  -16.973484  -16.973352  -16.973683
    -16.973550  -16.973520  -16.973610  -16.973747  -16.973865
    -16.973941  -16.973963  -16.973922  -16.973824  -16.973683
    -16.973948  -16.973788  -16.973676  -16.973688  -16.973800
    -16.973941  -16.974069  -16.974140  -16.974145  -16.974076
    -16.973948  -16.974102  -16.973938  -16.973776  -16.973699
    -16.973751  -16.973892  -16.974048  -16.974170  -16.974230
    -16.974206  -16.974102  -16.974122  -16.973980  -16.973798
    -16.973650  -16.973623  -16.973718  -16.973883  -16.974047
    -16.974157  -16.974187  -16.974122  -16.973758  -16.973589
    -16.973419  -16.973346  -16.973418  -16.973566  -16.973724
    -16.973844  -16.973894  -16.973866  -16.973758  -16.973681
    -16.973532  -16.973340  -16.973177  -16.973161  -16.973293
    -16.973467  -16.973624  -16.973729  -16.973750  -16.973681
    -16.973561  -16.973459  -16.973287  -16.973084  -16.972933
    -16.973009  -16.973189  -16.973367  -16.973510  -16.973577
    -16.973561  -16.973412  -16.973374  -16.973275  -16.973130
    -16.972984  -16.972903  -16.972984  -16.973130  -16.973275
    -16.973374  -16.973412  -16.973241  -16.973289  -16.973299
    -16.973267  -16.973216  -16.973159  -16.973115  -16.973095
    -16.973110  -16.973166  -16.973241  -16.973101  -16.973235
    -16.973358  -16.973429  -16.973447  -16.973433  -16.973393
    -16.973336  -16.973259  -16.973157  -16.973101  -16.973301
    -16.973308  -16.973435  -16.973561  -16.973636  -16.973665
    -16.973653  -16.973606  -16.973527  -16.973412  -16.973301
    -16.973526  -16.973445  -16.973498  -16.973629  -16.973748
    -16.973821  -16.973849  -16.973830  -16.973763  -16.973655
    -16.973526  -16.973683  -16.973550  -16.973520  -16.973610
    -16.973747  -16.973865  -16.973941  -16.973963  -16.973922
    -16.973824  -16.973683  -16.973761  -16.973602  -16.973487
    -16.973505  -16.973627  -16.973776  -16.973894  -16.973967
    -16.973968  -16.973896  -16.973761  -16.973758  -16.973589
    -16.973419  -16.973346  -16.973418  -16.973566  -16.973724
    -16.973844  -16.973894  -16.973866  -16.973758  -16.973329
    -16.973157  -16.973060  -16.973154  -16.973303  -16.973435
    -16.973533  -16.973578  -16.973560  -16.973473  -16.973329
    -16.973297  -16.973121  -16.972932  -16.972980  -16.973126
    -16.973267  -16.973386  -16.973458  -16.973476  -16.973420
    -16.973297  -16.973269  -16.973127  -16.972980  -16.972962
    -16.973051  -16.973160  -16.973265  -16.973345  -16.973385
    -16.973360  -16.973269  -16.973241  -16.973166  -16.973110
    -16.973095  -16.973115  -16.973159  -16.973216  -16.973267
    -16.973299  -16.973289  -16.973241  -16.973182  -16.973209
    -16.973245  -16.973261  -16.973260  -16.973258  -16.973260
    -16.973261  -16.973245  -16.973209  -16.973182  -16.973120
    -16.973256  -16.973360  -16.973411  -16.973425  -16.973414
    -16.973386  -16.973347  -16.973278  -16.973185  -16.973120
    -16.973202  -16.973296  -16.973436  -16.973525  -16.973564
    -16.973566  -16.973536  -16.973485  -16.973403  -16.973291
    -16.973202  -16.973301  -16.973308  -16.973435  -16.973561
    -16.973636  -16.973665  -16.973653  -16.973606  -16.973527
    -16.973412  -16.973301  -16.973352  -16.973280  -16.973362
    -16.973497  -16.973609  -16.973678  -16.973699  -16.973673
    -16.973602  -16.973484  -16.973352  -16.973358  -16.973224
    -16.973220  -16.973350  -16.973484  -16.973592  -16.973651
    -16.973659  -16.973609  -16.973501  -16.973358  -16.973329
    -16.973157  -16.973060  -16.973154  -16.973303  -16.973435
    -16.973533  -16.973578  -16.973560  -16.973473  -16.973329
    -16.972899  -16.973056  -16.973196  -16.973299  -16.973361
    -16.973380  -16.973361  -16.973299  -16.973196  -16.973056
    -16.972899  -16.972965  -16.973081  -16.973203  -16.973299
    -16.973368  -16.973399  -16.973390  -16.973336  -16.973238
    -16.973094  -16.972965  -16.973044  -16.973123  -16.973236
    -16.973326  -16.973390  -16.973425  -16.973429  -16.973394
    -16.973307  -16.973171  -16.973044  -16.973101  -16.973157
    -16.973259  -16.973336  -16.973393  -16.973433  -16.973447
    -16.973429  -16.973358  -16.973235  -16.973101  -16.973120
    -16.973185  -16.973278  -16.973347  -16.973386  -16.973414
    -16.973425  -16.973411  -16.973360  -16.973256  -16.973120
    -16.973091  -16.973226  -16.973320  -16.973373  -16.973392
    -16.973397  -16.973392  -16.973373  -16.973320  -16.973226
    -16.973091  -16.973120  -16.973256  -16.973360  -16.973411
    -16.973425  -16.973414  -16.973386  -16.973347  -16.973278
    -16.973185  -16.973120  -16.973101  -16.973235  -16.973358
    -16.973429  -16.973447  -16.973433  -16.973393  -16.973336
    -16.973259  -16.973157  -16.973101  -16.973044  -16.973171
    -16.973307  -16.973394  -16.973429  -16.973425  -16.973390
    -16.973326  -16.973236  -16.973123  -16.973044  -16.972965
    -16.973094  -16.973238  -16.973336  -16.973390  -16.973399
    -16.973368  -16.973299  -16.973203  -16.973081  -16.972965
    -16.972899  -16.973056  -16.973196  -16.973299  -16.973361
    -16.973380  -16.973361  -16.973299  -16.973196  -16.973056
    -16.972899  -16.973329  -16.973473  -16.973560  -16.973578
    -16.973533  -16.973435  -16.973303  -16.973154  -16.973060
    -16.973157  -16.973329  -16.973358  -16.973501  -16.973609
    -16.973659  -16.973651  -16.973592  -16.973484  -16.973350
    -16.973220  -16.973224  -16.973358  -16.973352  -16.973484
    -16.973602  -16.973673  -16.973699  -16.973678  -16.973609
    -16.973497  -16.973362  -16.973280  -16.973352  -16.973301
    -16.973412  -16.973527  -16.973606  -16.973653  -16.973665
    -16.973636  -16.973561  -16.973435  -16.973308  -16.973301
    -16.973202  -16.973291  -16.973403  -16.973485  -16.973536
    -16.973566  -16.973564  -16.973525  -16.973436  -16.973296
    -16.973202  -16.973120  -16.973185  -16.973278  -16.973347
    -16.973386  -16.973414  -16.973425  -16.973411  -16.973360
    -16.973256  -16.973120  -16.973182  -16.973209  -16.973245
    -16.973261  -16.973260  -16.973258  -16.973260  -16.973261
    -16.973245  -16.973209  -16.973182  -16.973241  -16.973289
    -16.973299  -16.973267  -16.973216  -16.973159  -16.973115
    -16.973095  -16.973110  -16.973166  -16.973241  -16.973269
    -16.973360  -16.973385  -16.973345  -16.973265  -16.973160
    -16.973051  -16.972962  -16.972980  -16.973127  -16.973269
    -16.973297  -16.973420  -16.973476  -16.973458  -16.973386
    -16.973267  -16.973126  -16.972980  -16.972932  -16.973121
    -16.973297  -16.973329  -16.973473  -16.973560  -16.973578
    -16.973533  -16.973435  -16.973303  -16.973154  -16.973060
    -16.973157  -16.973329  -16.973758  -16.973866  -16.973894
    -16.973844  -16.973724  -16.973566  -16.973418  -16.973346
    -16.973419  -16.973589  -16.973758  -16.973761  -16.973896
    -16.973968  -16.973967  -16.973894  -16.973776  -16.973627
    -16.973505  -16.973487  -16.973602  -16.973761  -16.973683
    -16.973824  -16.973922  -16.973963  -16.973941  -16.973865
    -16.973747  -16.973610  -16.973520  -16.973550  -16.973683
    -16.973526  -16.973655  -16.973763  -16.973830  -16.973849
    -16.973821  -16.973748  -16.973629  -16.973498  -16.973445
    -16.973526  -16.973301  -16.973412  -16.973527  -16.973606
    -16.973653  -16.973665  -16.973636  -16.973561  -16.973435
    -16.973308  -16.973301  -16.973101  -16.973157  -16.973259
    -16.973336  -16.973393  -16.973433  -16.973447  -16.973429
    -16.973358  -16.973235  -16.973101  -16.973241  -16.973166
    -16.973110  -16.973095  -16.973115  -16.973159  -16.973216
    -16.973267  -16.973299  -16.973289  -16.973241  -16.973412
    -16.973374  -16.973275  -16.973130  -16.972984  -16.972903
    -16.972984  -16.973130  -16.973275  -16.973374  -16.973412
    -16.973561  -16.973577  -16.973510  -16.973367  -16.973189
    -16.973009  -16.972933  -16.973084  -16.973287  -16.973459
    -16.973561  -16.973681  -16.973750  -16.973729  -16.973624
    -16.973467  -16.973293  -16.973161  -16.973177  -16.973340
    -16.973532  -16.973681  -16.973758  -16.973866  -16.973894
    -16.973844  -16.973724  -16.973566  -16.973418  -16.973346
    -16.973419  -16.973589  -16.973758  -16.974122  -16.974187
    -16.974157  -16.974047  -16.973883  -16.973718  -16.973623
    -16.973650  -16.973798  -16.973980  -16.974122  -16.974102
    -16.974206  -16.974230  -16.974170  -16.974048  -16.973892
    -16.973751  -16.973699  -16.973776  -16.973938  -16.974102
    -16.973948  -16.974076  -16.974145  -16.974140  -16.974069
    -16.973941  -16.973800  -16.973688  -16.973676  -16.973788
    -16.973948  -16.973683  -16.973824  -16.973922  -16.973963
    -16.973941  -16.973865  -16.973747  -16.973610  -16.973520
    -16.973550  -16.973683  -16.973352  -16.973484  -16.973602
    -16.973673  -16.973699  -16.973678  -16.973609  -16.973497