 BEGIN_INFO
   Fermi Energy:    7.93699
 END_INFO
 
 BEGIN_BLOCK_BANDGRID_3D
   THIS_FILE_WAS_GENERATED_BY_VASPKIT
   BEGIN_BANDGRID_3D
     3
    14    14    14
    0.0    0.0    0.0
    1.761949686    0.000000000    0.000000000
    0.000000000    1.761949686    0.000000000
    0.000000000    0.000000000    1.761949686
   BAND:     22
        9.33723        8.94952        8.06516        7.06764        6.41168        6.41187        6.41197        6.41202        6.41197        6.41187
        6.41168        7.06764        8.06516        8.94952        8.94952        9.12916        8.25504        7.30146        6.54083        6.38305
        6.38271        6.38230        6.38271        6.38305        6.54083        7.30146        8.25504        9.12916        8.06516        8.25504
        8.70830        7.76776        6.99664        6.49183        6.29945        6.29870        6.29945        6.49183        6.99664        7.76776
        8.70830        8.25504        7.06764        7.30146        7.76776        8.31195        7.48354        6.88398        6.49851        6.25275
        6.49851        6.88398        7.48354        8.31195        7.76776        7.30146        6.41168        6.54083        6.99664        7.48354
        8.00442        7.31383        6.83336        6.50819        6.83336        7.31383        8.00442        7.48354        6.99664        6.54083
        6.41187        6.38305        6.49183        6.88398        7.31383        7.78973        7.21605        6.81006        7.21605        7.78973
        7.31383        6.88398        6.49183        6.38305        6.41197        6.38271        6.29945        6.49851        6.83336        7.21605
        7.66432        7.17128        7.66432        7.21605        6.83336        6.49851        6.29945        6.38271        6.41202        6.38230
        6.29870        6.25275        6.50819        6.81006        7.17128        7.62327        7.17128        6.81006        6.50819        6.25275
        6.29870        6.38230        6.41197        6.38271        6.29945        6.49851        6.83336        7.21605        7.66432        7.17128
        7.66432        7.21605        6.83336        6.49851        6.29945        6.38271        6.41187        6.38305        6.49183        6.88398
        7.31383        7.78973        7.21605        6.81006        7.21605        7.78973        7.31383        6.88398        6.49183        6.38305
        6.41168        6.54083        6.99664        7.48354        8.00442        7.31383        6.83336        6.50819        6.83336        7.31383
        8.00442        7.48354        6.99664        6.54083        7.06764        7.30146        7.76776        8.31195        7.48354        6.88398
        6.49851        6.25275        6.49851        6.88398        7.48354        8.31195        7.76776        7.30146        8.06516        8.25504
        8.70830        7.76776        6.99664        6.49183        6.29945        6.29870        6.29945        6.49183        6.99664        7.76776
        8.70830        8.25504        8.94952        9.12916        8.25504        7.30146        6.54083        6.38305        6.38271        6.38230
        6.38271        6.38305        6.54083        7.30146        8.25504        9.12916        8.94952        9.12916        8.25504        7.30146
        6.54083        6.38305        6.38271        6.38230        6.38271        6.38305        6.54083        7.30146        8.25504        9.12916
        9.12916        9.29465        8.42142        7.47826        6.70821        6.35799        6.35710        6.35684        6.35710        6.35799
        6.70821        7.47826        8.42142        9.29465        8.25504        8.42142        8.83821        7.88678        7.08864        6.52767
        6.28747        6.28569        6.28747        6.52767        7.08864        7.88678        8.83821        8.42142        7.30146        7.47826
        7.88678        8.39907        7.54596        6.91099        6.49482        6.23857        6.49482        6.91099        7.54596        8.39907
        7.88678        7.47826        6.54083        6.70821        7.08864        7.54596        8.05065        7.33367        6.83030        6.49434
        6.83030        7.33367        8.05065        7.54596        7.08864        6.70821        6.38305        6.35799        6.52767        6.91099
        7.33367        7.80419        7.21204        6.79594        7.21204        7.80419        7.33367        6.91099        6.52767        6.35799
        6.38271        6.35710        6.28747        6.49482        6.83030        7.21204        7.65996        7.15759        7.65996        7.21204
        6.83030        6.49482        6.28747        6.35710        6.38230        6.35684        6.28569        6.23857        6.49434        6.79594
        7.15759        7.61297        7.15759        6.79594        6.49434        6.23857        6.28569        6.35684        6.38271        6.35710
        6.28747        6.49482        6.83030        7.21204        7.65996        7.15759        7.65996        7.21204        6.83030        6.49482
        6.28747        6.35710        6.38305        6.35799        6.52767        6.91099        7.33367        7.80419        7.21204        6.79594
        7.21204        7.80419        7.33367        6.91099        6.52767        6.35799        6.54083        6.70821        7.08864        7.54596
        8.05065        7.33367        6.83030        6.49434        6.83030        7.33367        8.05065        7.54596        7.08864        6.70821
        7.30146        7.47826        7.88678        8.39907        7.54596        6.91099        6.49482        6.23857        6.49482        6.91099
        7.54596        8.39907        7.88678        7.47826        8.25504        8.42142        8.83821        7.88678        7.08864        6.52767
        6.28747        6.28569        6.28747        6.52767        7.08864        7.88678        8.83821        8.42142        9.12916        9.29465
        8.42142        7.47826        6.70821        6.35799        6.35710        6.35684        6.35710        6.35799        6.70821        7.47826
        8.42142        9.29465        8.06516        8.25504        8.70830        7.76776        6.99664        6.49183        6.29945        6.29870
        6.29945        6.49183        6.99664        7.76776        8.70830        8.25504        8.25504        8.42142        8.83821        7.88678
        7.08864        6.52767        6.28747        6.28569        6.28747        6.52767        7.08864        7.88678        8.83821        8.42142
        8.70830        8.83821        9.18638        8.20238        7.35107        6.69998        6.25385        6.24938        6.25385        6.69998
        7.35107        8.20238        9.18638        8.83821        7.76776        7.88678        8.20238        8.64351        7.73191        7.01365
        6.50340        6.19793        6.50340        7.01365        7.73191        8.64351        8.20238        7.88678        6.99664        7.08864
        7.35107        7.73191        8.18827        7.40144        6.82928        6.45501        6.82928        7.40144        8.18827        7.73191
        7.35107        7.08864        6.49183        6.52767        6.69998        7.01365        7.40144        7.84919        7.20252        6.75408
        7.20252        7.84919        7.40144        7.01365        6.69998        6.52767        6.29945        6.28747        6.25385        6.50340
        6.82928        7.20252        7.64550        7.11540        7.64550        7.20252        6.82928        6.50340        6.25385        6.28747
        6.29870        6.28569        6.24938        6.19793        6.45501        6.75408        7.11540        7.57899        7.11540        6.75408
        6.45501        6.19793        6.24938        6.28569        6.29945        6.28747        6.25385        6.50340        6.82928        7.20252
        7.64550        7.11540        7.64550        7.20252        6.82928        6.50340        6.25385        6.28747        6.49183        6.52767
        6.69998        7.01365        7.40144        7.84919        7.20252        6.75408        7.20252        7.84919        7.40144        7.01365
        6.69998        6.52767        6.99664        7.08864        7.35107        7.73191        8.18827        7.40144        6.82928        6.45501
        6.82928        7.40144        8.18827        7.73191        7.35107        7.08864        7.76776        7.88678        8.20238        8.64351
        7.73191        7.01365        6.50340        6.19793        6.50340        7.01365        7.73191        8.64351        8.20238        7.88678
        8.70830        8.83821        9.18638        8.20238        7.35107        6.69998        6.25385        6.24938        6.25385        6.69998
        7.35107        8.20238        9.18638        8.83821        8.25504        8.42142        8.83821        7.88678        7.08864        6.52767
        6.28747        6.28569        6.28747        6.52767        7.08864        7.88678        8.83821        8.42142        7.06764        7.30146
        7.76776        8.31195        7.48354        6.88398        6.49851        6.25275        6.49851        6.88398        7.48354        8.31195
        7.76776        7.30146        7.30146        7.47826        7.88678        8.39907        7.54596        6.91099        6.49482        6.23857
        6.49482        6.91099        7.54596        8.39907        7.88678        7.47826        7.76776        7.88678        8.20238        8.64351
        7.73191        7.01365        6.50340        6.19793        6.50340        7.01365        7.73191        8.64351        8.20238        7.88678
        8.31195        8.39907        8.64351        9.00776        8.02814        7.22455        6.61136        6.19656        6.61136        7.22455
        8.02814        9.00776        8.64351        8.39907        7.48354        7.54596        7.73191        8.02814        8.41039        7.53614
        6.86154        6.40233        6.86154        7.53614        8.41039        8.02814        7.73191        7.54596        6.88398        6.91099
        7.01365        7.22455        7.53614        7.92827        7.19765        6.68788        7.19765        7.92827        7.53614        7.22455
        7.01365        6.91099        6.49851        6.49482        6.50340        6.61136        6.86154        7.19765        7.61688        7.04158
        7.61688        7.19765        6.86154        6.61136        6.50340        6.49482        6.25275        6.23857        6.19793        6.19656
        6.40233        6.68788        7.04158        7.51208        7.04158        6.68788        6.40233        6.19656        6.19793        6.23857
        6.49851        6.49482        6.50340        6.61136        6.86154        7.19765        7.61688        7.04158        7.61688        7.19765
        6.86154        6.61136        6.50340        6.49482        6.88398        6.91099        7.01365        7.22455        7.53614        7.92827
        7.19765        6.68788        7.19765        7.92827        7.53614        7.22455        7.01365        6.91099        7.48354        7.54596
        7.73191        8.02814        8.41039        7.53614        6.86154        6.40233        6.86154        7.53614        8.41039        8.02814
        7.73191        7.54596        8.31195        8.39907        8.64351        9.00776        8.02814        7.22455        6.61136        6.19656
        6.61136        7.22455        8.02814        9.00776        8.64351        8.39907        7.76776        7.88678        8.20238        8.64351
        7.73191        7.01365        6.50340        6.19793        6.50340        7.01365        7.73191        8.64351        8.20238        7.88678
        7.30146        7.47826        7.88678        8.39907        7.54596        6.91099        6.49482        6.23857        6.49482        6.91099
        7.54596        8.39907        7.88678        7.47826        6.41168        6.54083        6.99664        7.48354        8.00442        7.31383
        6.83336        6.50819        6.83336        7.31383        8.00442        7.48354        6.99664        6.54083        6.54083        6.70821
        7.08864        7.54596        8.05065        7.33367        6.83030        6.49434        6.83030        7.33367        8.05065        7.54596
        7.08864        6.70821        6.99664        7.08864        7.35107        7.73191        8.18827        7.40144        6.82928        6.45501
        6.82928        7.40144        8.18827        7.73191        7.35107        7.08864        7.48354        7.54596        7.73191        8.02814
        8.41039        7.53614        6.86154        6.40233        6.86154        7.53614        8.41039        8.02814        7.73191        7.54596
        8.00442        8.05065        8.18827        8.41039        8.69937        7.75071        6.98303        6.41474        6.98303        7.75071
        8.69937        8.41039        8.18827        8.05065        7.31383        7.33367        7.40144        7.53614        7.75071        8.04143
        7.22119        6.61414        7.22119        8.04143        7.75071        7.53614        7.40144        7.33367        6.83336        6.83030
        6.82928        6.86154        6.98303        7.22119        7.56876        6.93393        7.56876        7.22119        6.98303        6.86154
        6.82928        6.83030        6.50819        6.49434        6.45501        6.40233        6.41474        6.61414        6.93393        7.39618
        6.93393        6.61414        6.41474        6.40233        6.45501        6.49434        6.83336        6.83030        6.82928        6.86154
        6.98303        7.22119        7.56876        6.93393        7.56876        7.22119        6.98303        6.86154        6.82928        6.83030
        7.31383        7.33367        7.40144        7.53614        7.75071        8.04143        7.22119        6.61414        7.22119        8.04143
        7.75071        7.53614        7.40144        7.33367        8.00442        8.05065        8.18827        8.41039        8.69937        7.75071
        6.98303        6.41474        6.98303        7.75071        8.69937        8.41039        8.18827        8.05065        7.48354        7.54596
        7.73191        8.02814        8.41039        7.53614        6.86154        6.40233        6.86154        7.53614        8.41039        8.02814
        7.73191        7.54596        6.99664        7.08864        7.35107        7.73191        8.18827        7.40144        6.82928        6.45501
        6.82928        7.40144        8.18827        7.73191        7.35107        7.08864        6.54083        6.70821        7.08864        7.54596
        8.05065        7.33367        6.83030        6.49434        6.83030        7.33367        8.05065        7.54596        7.08864        6.70821
        6.41187        6.38305        6.49183        6.88398        7.31383        7.78973        7.21605        6.81006        7.21605        7.78973
        7.31383        6.88398        6.49183        6.38305        6.38305        6.35799        6.52767        6.91099        7.33367        7.80419
        7.21204        6.79594        7.21204        7.80419        7.33367        6.91099        6.52767        6.35799        6.49183        6.52767
        6.69998        7.01365        7.40144        7.84919        7.20252        6.75408        7.20252        7.84919        7.40144        7.01365
        6.69998        6.52767        6.88398        6.91099        7.01365        7.22455        7.53614        7.92827        7.19765        6.68788
        7.19765        7.92827        7.53614        7.22455        7.01365        6.91099        7.31383        7.33367        7.40144        7.53614
        7.75071        8.04143        7.22119        6.61414        7.22119        8.04143        7.75071        7.53614        7.40144        7.33367
        7.78973        7.80419        7.84919        7.92827        8.04143        8.17602        7.31159        6.60808        7.31159        8.17602
        8.04143        7.92827        7.84919        7.80419        7.21605        7.21204        7.20252        7.19765        7.22119        7.31159
        7.49938        6.80127        7.49938        7.31159        7.22119        7.19765        7.20252        7.21204        6.81006        6.79594
        6.75408        6.68788        6.61414        6.60808        6.80127        7.21161        6.80127        6.60808        6.61414        6.68788
        6.75408        6.79594        7.21605        7.21204        7.20252        7.19765        7.22119        7.31159        7.49938        6.80127
        7.49938        7.31159        7.22119        7.19765        7.20252        7.21204        7.78973        7.80419        7.84919        7.92827
        8.04143        8.17602        7.31159        6.60808        7.31159        8.17602        8.04143        7.92827        7.84919        7.80419
        7.31383        7.33367        7.40144        7.53614        7.75071        8.04143        7.22119        6.61414        7.22119        8.04143
        7.75071        7.53614        7.40144        7.33367        6.88398        6.91099        7.01365        7.22455        7.53614        7.92827
        7.19765        6.68788        7.19765        7.92827        7.53614        7.22455        7.01365        6.91099        6.49183        6.52767
        6.69998        7.01365        7.40144        7.84919        7.20252        6.75408        7.20252        7.84919        7.40144        7.01365
        6.69998        6.52767        6.38305        6.35799        6.52767        6.91099        7.33367        7.80419        7.21204        6.79594
        7.21204        7.80419        7.33367        6.91099        6.52767        6.35799        6.41197        6.38271        6.29945        6.49851
        6.83336        7.21605        7.66432        7.17128        7.66432        7.21605        6.83336        6.49851        6.29945        6.38271
        6.38271        6.35710        6.28747        6.49482        6.83030        7.21204        7.65996        7.15759        7.65996        7.21204
        6.83030        6.49482        6.28747        6.35710        6.29945        6.28747        6.25385        6.50340        6.82928        7.20252
        7.64550        7.11540        7.64550        7.20252        6.82928        6.50340        6.25385        6.28747        6.49851        6.49482
        6.50340        6.61136        6.86154        7.19765        7.61688        7.04158        7.61688        7.19765        6.86154        6.61136
        6.50340        6.49482        6.83336        6.83030        6.82928        6.86154        6.98303        7.22119        7.56876        6.93393
        7.56876        7.22119        6.98303        6.86154        6.82928        6.83030        7.21605        7.21204        7.20252        7.19765
        7.22119        7.31159        7.49938        6.80127        7.49938        7.31159        7.22119        7.19765        7.20252        7.21204
        7.66432        7.65996        7.64550        7.61688        7.56876        7.49938        7.42496        6.72499        7.42496        7.49938
        7.56876        7.61688        7.64550        7.65996        7.17128        7.15759        7.11540        7.04158        6.93393        6.80127
        6.72499        6.95371        6.72499        6.80127        6.93393        7.04158        7.11540        7.15759        7.66432        7.65996
        7.64550        7.61688        7.56876        7.49938        7.42496        6.72499        7.42496        7.49938        7.56876        7.61688
        7.64550        7.65996        7.21605        7.21204        7.20252        7.19765        7.22119        7.31159        7.49938        6.80127
        7.49938        7.31159        7.22119        7.19765        7.20252        7.21204        6.83336        6.83030        6.82928        6.86154
        6.98303        7.22119        7.56876        6.93393        7.56876        7.22119        6.98303        6.86154        6.82928        6.83030
        6.49851        6.49482        6.50340        6.61136        6.86154        7.19765        7.61688        7.04158        7.61688        7.19765
        6.86154        6.61136        6.50340        6.49482        6.29945        6.28747        6.25385        6.50340        6.82928        7.20252
        7.64550        7.11540        7.64550        7.20252        6.82928        6.50340        6.25385        6.28747        6.38271        6.35710
        6.28747        6.49482        6.83030        7.21204        7.65996        7.15759        7.65996        7.21204        6.83030        6.49482
        6.28747        6.35710        6.41202        6.38230        6.29870        6.25275        6.50819        6.81006        7.17128        7.62327
        7.17128        6.81006        6.50819        6.25275        6.29870        6.38230        6.38230        6.35684        6.28569        6.23857
        6.49434        6.79594        7.15759        7.61297        7.15759        6.79594        6.49434        6.23857        6.28569        6.35684
        6.29870        6.28569        6.24938        6.19793        6.45501        6.75408        7.11540        7.57899        7.11540        6.75408
        6.45501        6.19793        6.24938        6.28569        6.25275        6.23857        6.19793        6.19656        6.40233        6.68788
        7.04158        7.51208        7.04158        6.68788        6.40233        6.19656        6.19793        6.23857        6.50819        6.49434
        6.45501        6.40233        6.41474        6.61414        6.93393        7.39618        6.93393        6.61414        6.41474        6.40233
        6.45501        6.49434        6.81006        6.79594        6.75408        6.68788        6.61414        6.60808        6.80127        7.21161
        6.80127        6.60808        6.61414        6.68788        6.75408        6.79594        7.17128        7.15759        7.11540        7.04158
        6.93393        6.80127        6.72499        6.95371        6.72499        6.80127        6.93393        7.04158        7.11540        7.15759
        7.62327        7.61297        7.57899        7.51208        7.39618        7.21161        6.95371        6.75241        6.95371        7.21161
        7.39618        7.51208        7.57899        7.61297        7.17128        7.15759        7.11540        7.04158        6.93393        6.80127
        6.72499        6.95371        6.72499        6.80127        6.93393        7.04158        7.11540        7.15759        6.81006        6.79594
        6.75408        6.68788        6.61414        6.60808        6.80127        7.21161        6.80127        6.60808        6.61414        6.68788
        6.75408        6.79594        6.50819        6.49434        6.45501        6.40233        6.41474        6.61414        6.93393        7.39618
        6.93393        6.61414        6.41474        6.40233        6.45501        6.49434        6.25275        6.23857        6.19793        6.19656
        6.40233        6.68788        7.04158        7.51208        7.04158        6.68788        6.40233        6.19656        6.19793        6.23857
        6.29870        6.28569        6.24938        6.19793        6.45501        6.75408        7.11540        7.57899        7.11540        6.75408
        6.45501        6.19793        6.24938        6.28569        6.38230        6.35684        6.28569        6.23857        6.49434        6.79594
        7.15759        7.61297        7.15759        6.79594        6.49434        6.23857        6.28569        6.35684        6.41197        6.38271
        6.29945        6.49851        6.83336        7.21605        7.66432        7.17128        7.66432        7.21605        6.83336        6.49851
        6.29945        6.38271        6.38271        6.35710        6.28747        6.49482        6.83030        7.21204        7.65996        7.15759
        7.65996        7.21204        6.83030        6.49482        6.28747        6.35710        6.29945        6.28747        6.25385        6.50340
        6.82928        7.20252        7.64550        7.11540        7.64550        7.20252        6.82928        6.50340        6.25385        6.28747
        6.49851        6.49482        6.50340        6.61136        6.86154        7.19765        7.61688        7.04158        7.61688        7.19765
        6.86154        6.61136        6.50340        6.49482        6.83336        6.83030        6.82928        6.86154        6.98303        7.22119
        7.56876        6.93393        7.56876        7.22119        6.98303        6.86154        6.82928        6.83030        7.21605        7.21204
        7.20252        7.19765        7.22119        7.31159        7.49938        6.80127        7.49938        7.31159        7.22119        7.19765
        7.20252        7.21204        7.66432        7.65996        7.64550        7.61688        7.56876        7.49938        7.42496        6.72499
        7.42496        7.49938        7.56876        7.61688        7.64550        7.65996        7.17128        7.15759        7.11540        7.04158
        6.93393        6.80127        6.72499        6.95371        6.72499        6.80127        6.93393        7.04158        7.11540        7.15759
        7.66432        7.65996        7.64550        7.61688        7.56876        7.49938        7.42496        6.72499        7.42496        7.49938
        7.56876        7.61688        7.64550        7.65996        7.21605        7.21204        7.20252        7.19765        7.22119        7.31159
        7.49938        6.80127        7.49938        7.31159        7.22119        7.19765        7.20252        7.21204        6.83336        6.83030
        6.82928        6.86154        6.98303        7.22119        7.56876        6.93393        7.56876        7.22119        6.98303        6.86154
        6.82928        6.83030        6.49851        6.49482        6.50340        6.61136        6.86154        7.19765        7.61688        7.04158
        7.61688        7.19765        6.86154        6.61136        6.50340        6.49482        6.29945        6.28747        6.25385        6.50340
        6.82928        7.20252        7.64550        7.11540        7.64550        7.20252        6.82928        6.50340        6.25385        6.28747
        6.38271        6.35710        6.28747        6.49482        6.83030        7.21204        7.65996        7.15759        7.65996        7.21204
        6.83030        6.49482        6.28747        6.35710        6.41187        6.38305        6.49183        6.88398        7.31383        7.78973
        7.21605        6.81006        7.21605        7.78973        7.31383        6.88398        6.49183        6.38305        6.38305        6.35799
        6.52767        6.91099        7.33367        7.80419        7.21204        6.79594        7.21204        7.80419        7.33367        6.91099
        6.52767        6.35799        6.49183        6.52767        6.69998        7.01365        7.40144        7.84919        7.20252        6.75408
        7.20252        7.84919        7.40144        7.01365        6.69998        6.52767        6.88398        6.91099        7.01365        7.22455
        7.53614        7.92827        7.19765        6.68788        7.19765        7.92827        7.53614        7.22455        7.01365        6.91099
        7.31383        7.33367        7.40144        7.53614        7.75071        8.04143        7.22119        6.61414        7.22119        8.04143
        7.75071        7.53614        7.40144        7.33367        7.78973        7.80419        7.84919        7.92827        8.04143        8.17602
        7.31159        6.60808        7.31159        8.17602        8.04143        7.92827        7.84919        7.80419        7.21605        7.21204
        7.20252        7.19765        7.22119        7.31159        7.49938        6.80127        7.49938        7.31159        7.22119        7.19765
        7.20252        7.21204        6.81006        6.79594        6.75408        6.68788        6.61414        6.60808        6.80127        7.21161
        6.80127        6.60808        6.61414        6.68788        6.75408        6.79594        7.21605        7.21204        7.20252        7.19765
        7.22119        7.31159        7.49938        6.80127        7.49938        7.31159        7.22119        7.19765        7.20252        7.21204
        7.78973        7.80419        7.84919        7.92827        8.04143        8.17602        7.31159        6.60808        7.31159        8.17602
        8.04143        7.92827        7.84919        7.80419        7.31383        7.33367        7.40144        7.53614        7.75071        8.04143
        7.22119        6.61414        7.22119        8.04143        7.75071        7.53614        7.40144        7.33367        6.88398        6.91099
        7.01365        7.22455        7.53614        7.92827        7.19765        6.68788        7.19765        7.92827        7.53614        7.22455
        7.01365        6.91099        6.49183        6.52767        6.69998        7.01365        7.40144        7.84919        7.20252        6.75408
        7.20252        7.84919        7.40144        7.01365        6.69998        6.52767        6.38305        6.35799        6.52767        6.91099
        7.33367        7.80419        7.21204        6.79594        7.21204        7.80419        7.33367        6.91099        6.52767        6.35799