 BEGIN_INFO
   Fermi Energy:    7.62106
 END_INFO
 
 BEGIN_BLOCK_BANDGRID_3D
   THIS_FILE_WAS_GENERATED_BY_VASPKIT
   BEGIN_BANDGRID_3D
     9
    24    24    24
    0.0    0.0    0.0
   -1.748145760    1.748145760    1.748145760
    1.748145760   -1.748145760    1.748145760
    1.748145760    1.748145760   -1.748145760
   BAND:      1
   -1.909889   -1.845730   -1.654404   -1.339724   -0.909061   -0.375495    0.237618    0.887349    1.498160    1.971322
    2.256727    2.391471    2.429569    2.391471    2.256727    1.971322    1.498160    0.887349    0.237618   -0.375495
   -0.909061   -1.339724   -1.654404   -1.845730   -1.845730   -1.824355   -1.675480   -1.401955   -1.009850   -0.510036
    0.078283    0.720016    1.351526    1.876942    2.220619    2.395974    2.460815    2.448708    2.352841    2.127700
    1.720220    1.147987    0.503583   -0.125849   -0.687667   -1.153237   -1.506718   -1.739186   -1.654404   -1.675480
   -1.569595   -1.338843   -0.988154   -0.526711    0.029476    0.651518    1.286628    1.847902    2.244096    2.460385
    2.551822    2.564037    2.503814    2.337549    2.005511    1.490689    0.867579    0.232469   -0.350594   -0.846336
   -1.235357   -1.506718   -1.339724   -1.401955   -1.338843   -1.151738   -0.844764   -0.425790    0.091404    0.682575
    1.304058    1.881088    2.318868    2.574964    2.693040    2.727983    2.699488    2.587565    2.335530    1.896669
    1.314471    0.687649    0.092732   -0.426556   -0.846336   -1.153237   -0.909061   -1.009850   -0.988154   -0.844764
   -0.583203   -0.210558    0.260698    0.809281    1.398254    1.965386    2.424656    2.716032    2.862712    2.921653
    2.922702    2.859150    2.685437    2.337304    1.818629    1.218935    0.625800    0.092732   -0.350594   -0.687667
   -0.375495   -0.510036   -0.526711   -0.425790   -0.210558    0.112004    0.529799    1.022443    1.556814    2.081169
    2.526985    2.837777    3.016071    3.107209    3.142940    3.125272    3.023190    2.771507    2.338183    1.790007
    1.218935    0.687649    0.232469   -0.125849    0.237618    0.078283    0.029476    0.091404    0.260698    0.529799
    0.885411    1.306306    1.760355    2.204222    2.590143    2.884091    3.084599    3.217391    3.303470    3.340836
    3.305537    3.143902    2.807752    2.338183    1.818629    1.314471    0.867579    0.503583    0.887349    0.720016
    0.651518    0.682575    0.809281    1.022443    1.306306    1.637274    1.984714    2.316070    2.606182    2.844416
    3.035254    3.192818    3.329138    3.436161    3.473013    3.388220    3.143902    2.771507    2.337304    1.896669
    1.490689    1.147987    1.498160    1.351526    1.286628    1.304058    1.398254    1.556814    1.760355    1.984714
    2.206977    2.412608    2.597539    2.764578    2.919601    3.069437    3.219646    3.368787    3.483554    3.473013
    3.305537    3.023190    2.685437    2.335530    2.005511    1.720220    1.971322    1.876942    1.847902    1.881088
    1.965386    2.081169    2.204222    2.316070    2.412608    2.500888    2.590404    2.688421    2.799236    2.925148
    3.066570    3.220263    3.368787    3.436161    3.340836    3.125272    2.859150    2.587565    2.337549    2.127700
    2.256727    2.220619    2.244096    2.318868    2.424656    2.526985    2.590143    2.606182    2.597539    2.590404
    2.601202    2.637844    2.703471    2.798473    2.921187    3.066570    3.219646    3.329138    3.303470    3.142940
    2.922702    2.699488    2.503814    2.352841    2.391471    2.395974    2.460385    2.574964    2.716032    2.837777
    2.884091    2.844416    2.764578    2.688421    2.637844    2.621787    2.643355    2.702860    2.798473    2.925148
    3.069437    3.192818    3.217391    3.107209    2.921653    2.727983    2.564037    2.448708    2.429569    2.460815
    2.551822    2.693040    2.862712    3.016071    3.084599    3.035254    2.919601    2.799236    2.703471    2.643355
    2.622968    2.643355    2.703471    2.799236    2.919601    3.035254    3.084599    3.016071    2.862712    2.693040
    2.551822    2.460815    2.391471    2.448708    2.564037    2.727983    2.921653    3.107209    3.217391    3.192818
    3.069437    2.925148    2.798473    2.702860    2.643355    2.621787    2.637844    2.688421    2.764578    2.844416
    2.884091    2.837777    2.716032    2.574964    2.460385    2.395974    2.256727    2.352841    2.503814    2.699488
    2.922702    3.142940    3.303470    3.329138    3.219646    3.066570    2.921187    2.798473    2.703471    2.637844
    2.601202    2.590404    2.597539    2.606182    2.590143    2.526985    2.424656    2.318868    2.244096    2.220619
    1.971322    2.127700    2.337549    2.587565    2.859150    3.125272    3.340836    3.436161    3.368787    3.220263
    3.066570    2.925148    2.799236    2.688421    2.590404    2.500888    2.412608    2.316070    2.204222    2.081169
    1.965386    1.881088    1.847902    1.876942    1.498160    1.720220    2.005511    2.335530    2.685437    3.023190
    3.305537    3.473013    3.483554    3.368787    3.219646    3.069437    2.919601    2.764578    2.597539    2.412608
    2.206977    1.984714    1.760355    1.556814    1.398254    1.304058    1.286628    1.351526    0.887349    1.147987
    1.490689    1.896669    2.337304    2.771507    3.143902    3.388220    3.473013    3.436161    3.329138    3.192818
    3.035254    2.844416    2.606182    2.316070    1.984714    1.637274    1.306306    1.022443    0.809281    0.682575
    0.651518    0.720016    0.237618    0.503583    0.867579    1.314471    1.818629    2.338183    2.807752    3.143902
    3.305537    3.340836    3.303470    3.217391    3.084599    2.884091    2.590143    2.204222    1.760355    1.306306
    0.885411    0.529799    0.260698    0.091404    0.029476    0.078283   -0.375495   -0.125849    0.232469    0.687649
    1.218935    1.790007    2.338183    2.771507    3.023190    3.125272    3.142940    3.107209    3.016071    2.837777
    2.526985    2.081169    1.556814    1.022443    0.529799    0.112004   -0.210558   -0.425790   -0.526711   -0.510036
   -0.909061   -0.687667   -0.350594    0.092732    0.625800    1.218935    1.818629    2.337304    2.685437    2.859150
    2.922702    2.921653    2.862712    2.716032    2.424656    1.965386    1.398254    0.809281    0.260698   -0.210558
   -0.583203   -0.844764   -0.988154   -1.009850   -1.339724   -1.153237   -0.846336   -0.426556    0.092732    0.687649
    1.314471    1.896669    2.335530    2.587565    2.699488    2.727983    2.693040    2.574964    2.318868    1.881088
    1.304058    0.682575    0.091404   -0.425790   -0.844764   -1.151738   -1.338843   -1.401955   -1.654404   -1.506718
   -1.235357   -0.846336   -0.350594    0.232469    0.867579    1.490689    2.005511    2.337549    2.503814    2.564037
    2.551822    2.460385    2.244096    1.847902    1.286628    0.651518    0.029476   -0.526711   -0.988154   -1.338843
   -1.569595   -1.675480   -1.845730   -1.739186   -1.506718   -1.153237   -0.687667   -0.125849    0.503583    1.147987
    1.720220    2.127700    2.352841    2.448708    2.460815    2.395974    2.220619    1.876942    1.351526    0.720016
    0.078283   -0.510036   -1.009850   -1.401955   -1.675480   -1.824355   -1.845730   -1.824355   -1.675480   -1.401955
   -1.009850   -0.510036    0.078283    0.720016    1.351526    1.876942    2.220619    2.395974    2.460815    2.448708
    2.352841    2.127700    1.720220    1.147987    0.503583   -0.125849   -0.687667   -1.153237   -1.506718   -1.739186
   -1.824355   -1.845730   -1.739186   -1.506718   -1.153237   -0.687667   -0.125849    0.503583    1.147987    1.720220
    2.127700    2.352841    2.448708    2.460815    2.395974    2.220619    1.876942    1.351526    0.720016    0.078283
   -0.510036   -1.009850   -1.401955   -1.675480   -1.675480   -1.739186   -1.675480   -1.485525   -1.173244   -0.746028
   -0.217067    0.390045    1.032125    1.633421    2.095397    2.370200    2.498011    2.533827    2.498011    2.370200
    2.095397    1.633421    1.032125    0.390045   -0.217067   -0.746028   -1.173244   -1.485525   -1.401955   -1.506718
   -1.485525   -1.338843   -1.069634   -0.684207   -0.193713    0.382084    1.007595    1.619042    2.121623    2.443326
    2.603370    2.661954    2.652305    2.567701    2.362235    1.977967    1.426587    0.799160    0.183275   -0.367966
   -0.825530   -1.173244   -1.009850   -1.153237   -1.173244   -1.069634   -0.844764   -0.504053   -0.057347    0.478269
    1.072736    1.673176    2.195892    2.557113    2.749870    2.831621    2.846158    2.799635    2.659331    2.361833
    1.881294    1.287797    0.676917    0.112983   -0.367966   -0.746028   -0.510036   -0.687667   -0.746028   -0.684207
   -0.504053   -0.210558    0.187003    0.672871    1.220276    1.784580    2.296940    2.679448    2.904297    3.014156
    3.056056    3.045315    2.963228    2.753485    2.362001    1.825581    1.239010    0.676917    0.183275   -0.217067
    0.078283   -0.125849   -0.217067   -0.193713   -0.057347    0.187003    0.529799    0.954882    1.436421    1.934651
    2.395425    2.761926    3.006896    3.152652    3.235349    3.268783    3.241777    3.112558    2.817944    2.361732
    1.825581    1.287797    0.799160    0.390045    0.720016    0.503583    0.390045    0.382084    0.478269    0.672871
    0.954882    1.306306    1.700135    2.100602    2.468489    2.773101    3.004137    3.174636    3.306107    3.403648
    3.443380    3.386278    3.180624    2.817944    2.362001    1.881294    1.426587    1.032125    1.351526    1.147987
    1.032125    1.007595    1.072736    1.220276    1.436421    1.700135    1.984714    2.262962    2.515066    2.732830
    2.918252    3.080146    3.230056    3.374843    3.497295    3.518081    3.386278    3.112558    2.753485    2.361833
    1.977967    1.633421    1.876942    1.720220    1.633421    1.619042    1.673176    1.784580    1.934651    2.100602
    2.262962    2.412608    2.550358    2.681398    2.811234    2.944471    3.084906    3.234353    3.387689    3.497295
    3.443380    3.241777    2.963228    2.659331    2.362235    2.095397    2.220619    2.127700    2.095397    2.121623
    2.195892    2.296940    2.395425    2.468489    2.515066    2.550358    2.590404    2.645580    2.721040    2.818872
    2.939137    3.079887    3.234353    3.374843    3.403648    3.268783    3.045315    2.799635    2.567701    2.370200
    2.395974    2.352841    2.370200    2.443326    2.557113    2.679448    2.761926    2.773101    2.732830    2.681398
    2.645580    2.637844    2.663164    2.722783    2.815824    2.939137    3.084906    3.230056    3.306107    3.235349
    3.056056    2.846158    2.652305    2.498011    2.460815    2.448708    2.498011    2.603370    2.749870    2.904297
    3.006896    3.004137    2.918252    2.811234    2.721040    2.663164    2.643355    2.663375    2.722783    2.818872
    2.944471    3.080146    3.174636    3.152652    3.014156    2.831621    2.661954    2.533827    2.448708    2.460815
    2.533827    2.661954    2.831621    3.014156    3.152652    3.174636    3.080146    2.944471    2.818872    2.722783
    2.663375    2.643355    2.663164    2.721040    2.811234    2.918252    3.004137    3.006896    2.904297    2.749870
    2.603370    2.498011    2.352841    2.395974    2.498011    2.652305    2.846158    3.056056    3.235349    3.306107
    3.230056    3.084906    2.939137    2.815824    2.722783    2.663164    2.637844    2.645580    2.681398    2.732830
    2.773101    2.761926    2.679448    2.557113    2.443326    2.370200    2.127700    2.220619    2.370200    2.567701
    2.799635    3.045315    3.268783    3.403648    3.374843    3.234353    3.079887    2.939137    2.818872    2.721040
    2.645580    2.590404    2.550358    2.515066    2.468489    2.395425    2.296940    2.195892    2.121623    2.095397
    1.720220    1.876942    2.095397    2.362235    2.659331    2.963228    3.241777    3.443380    3.497295    3.387689
    3.234353    3.084906    2.944471    2.811234    2.681398    2.550358    2.412608    2.262962    2.100602    1.934651
    1.784580    1.673176    1.619042    1.633421    1.147987    1.351526    1.633421    1.977967    2.361833    2.753485
    3.112558    3.386278    3.518081    3.497295    3.374843    3.230056    3.080146    2.918252    2.732830    2.515066
    2.262962    1.984714    1.700135    1.436421    1.220276    1.072736    1.007595    1.032125    0.503583    0.720016
    1.032125    1.426587    1.881294    2.362001    2.817944    3.180624    3.386278    3.443380    3.403648    3.306107
    3.174636    3.004137    2.773101    2.468489    2.100602    1.700135    1.306306    0.954882    0.672871    0.478269
    0.382084    0.390045   -0.125849    0.078283    0.390045    0.799160    1.287797    1.825581    2.361732    2.817944
    3.112558    3.241777    3.268783    3.235349    3.152652    3.006896    2.761926    2.395425    1.934651    1.436421
    0.954882    0.529799    0.187003   -0.057347   -0.193713   -0.217067   -0.687667   -0.510036   -0.217067    0.183275
    0.676917    1.239010    1.825581    2.362001    2.753485    2.963228    3.045315    3.056056    3.014156    2.904297
    2.679448    2.296940    1.784580    1.220276    0.672871    0.187003   -0.210558   -0.504053   -0.684207   -0.746028
   -1.153237   -1.009850   -0.746028   -0.367966    0.112983    0.676917    1.287797    1.881294    2.361833    2.659331
    2.799635    2.846158    2.831621    2.749870    2.557113    2.195892    1.673176    1.072736    0.478269   -0.057347
   -0.504053   -0.844764   -1.069634   -1.173244   -1.506718   -1.401955   -1.173244   -0.825530   -0.367966    0.183275
    0.799160    1.426587    1.977967    2.362235    2.567701    2.652305    2.661954    2.603370    2.443326    2.121623
    1.619042    1.007595    0.382084   -0.193713   -0.684207   -1.069634   -1.338843   -1.485525   -1.739186   -1.675480
   -1.485525   -1.173244   -0.746028   -0.217067    0.390045    1.032125    1.633421    2.095397    2.370200    2.498011
    2.533827    2.498011    2.370200    2.095397    1.633421    1.032125    0.390045   -0.217067   -0.746028   -1.173244
   -1.485525   -1.675480   -1.654404   -1.675480   -1.569595   -1.338843   -0.988154   -0.526711    0.029476    0.651518
    1.286628    1.847902    2.244096    2.460385    2.551822    2.564037    2.503814    2.337549    2.005511    1.490689
    0.867579    0.232469   -0.350594   -0.846336   -1.235357   -1.506718   -1.675480   -1.739186   -1.675480   -1.485525
   -1.173244   -0.746028   -0.217067    0.390045    1.032125    1.633421    2.095397    2.370200    2.498011    2.533827
    2.498011    2.370200    2.095397    1.633421    1.032125    0.390045   -0.217067   -0.746028   -1.173244   -1.485525
   -1.569595   -1.675480   -1.654404   -1.506718   -1.235357   -0.846336   -0.350594    0.232469    0.867579    1.490689
    2.005511    2.337549    2.503814    2.564037    2.551822    2.460385    2.244096    1.847902    1.286628    0.651518
    0.029476   -0.526711   -0.988154   -1.338843   -1.338843   -1.485525   -1.506718   -1.401955   -1.173244   -0.825530
   -0.367966    0.183275    0.799160    1.426587    1.977967    2.362235    2.567701    2.652305    2.661954    2.603370
    2.443326    2.121623    1.619042    1.007595    0.382084   -0.193713   -0.684207   -1.069634   -0.988154   -1.173244
   -1.235357   -1.173244   -0.988154   -0.684207   -0.269172    0.243050    0.828136    1.442231    2.010105    2.436542
    2.680913    2.790259    2.820229    2.790259    2.680913    2.436542    2.010105    1.442231    0.828136    0.243050
   -0.269172   -0.684207   -0.526711   -0.746028   -0.846336   -0.825530   -0.684207   -0.425790   -0.057347    0.408714
    0.951005    1.532603    2.091318    2.540778    2.821128    2.958233    3.010325    3.006662    2.941004    2.769980
    2.431751    1.929152    1.346093    0.766393    0.243050   -0.193713    0.029476   -0.217067   -0.350594   -0.367966
   -0.269172   -0.057347    0.260698    0.672871    1.158900    1.685829    2.202393    2.640229    2.942253    3.112363
    3.197391    3.226952    3.201937    3.094883    2.846454    2.427633    1.899324    1.346093    0.828136    0.382084
    0.651518    0.390045    0.232469    0.183275    0.243050    0.408714    0.672871    1.022443    1.436421    1.883038
    2.319509    2.698138    2.984057    3.177295    3.307904    3.395497    3.426698    3.376754    3.207004    2.878006
    2.427633    1.929152    1.442231    1.007595    1.286628    1.032125    0.867579    0.799160    0.828136    0.951005
    1.158900    1.436421    1.760355    2.100602    2.424848    2.707487    2.936739    3.117463    3.267750    3.406703
    3.534132    3.562915    3.456231    3.207004    2.846454    2.431751    2.010105    1.619042    1.847902    1.633421
    1.490689    1.426587    1.442231    1.532603    1.685829    1.883038    2.100602    2.316070    2.515066    2.692979
    2.851683    2.996432    3.134864    3.275143    3.422501    3.574518    3.562915    3.376754    3.094883    2.769980
    2.436542    2.121623    2.244096    2.095397    2.005511    1.977967    2.010105    2.091318    2.202393    2.319509
    2.424848    2.515066    2.597539    2.681398    2.773036    2.875967    2.992245    3.123050    3.268072    3.422501
    3.534132    3.426698    3.201937    2.941004    2.680913    2.443326    2.460385    2.370200    2.337549    2.362235
    2.436542    2.540778    2.640229    2.698138    2.707487    2.692979    2.681398    2.688421    2.721040    2.781651
    2.870205    2.985174    3.123050    3.275143    3.406703    3.395497    3.226952    3.006662    2.790259    2.603370
    2.551822    2.498011    2.503814    2.567701    2.680913    2.821128    2.942253    2.984057    2.936739    2.851683
    2.773036    2.721040    2.703471    2.722783    2.778969    2.870205    2.992245    3.134864    3.267750    3.307904
    3.197391    3.010325    2.820229    2.661954    2.564037    2.533827    2.564037    2.652305    2.790259    2.958233
    3.112363    3.177295    3.117463    2.996432    2.875967    2.781651    2.722783    2.702860    2.722783    2.781651
    2.875967    2.996432    3.117463    3.177295    3.112363    2.958233    2.790259    2.652305    2.503814    2.498011
    2.551822    2.661954    2.820229    3.010325    3.197391    3.307904    3.267750    3.134864    2.992245    2.870205
    2.778969    2.722783    2.703471    2.721040    2.773036    2.851683    2.936739    2.984057    2.942253    2.821128
    2.680913    2.567701    2.337549    2.370200    2.460385    2.603370    2.790259    3.006662    3.226952    3.395497
    3.406703    3.275143    3.123050    2.985174    2.870205    2.781651    2.721040    2.688421    2.681398    2.692979
    2.707487    2.698138    2.640229    2.540778    2.436542    2.362235    2.005511    2.095397    2.244096    2.443326
    2.680913    2.941004    3.201937    3.426698    3.534132    3.422501    3.268072    3.123050    2.992245    2.875967
    2.773036    2.681398    2.597539    2.515066    2.424848    2.319509    2.202393    2.091318    2.010105    1.977967
    1.490689    1.633421    1.847902    2.121623    2.436542    2.769980    3.094883    3.376754    3.562915    3.574518
    3.422501    3.275143    3.134864    2.996432    2.851683    2.692979    2.515066    2.316070    2.100602    1.883038
    1.685829    1.532603    1.442231    1.426587    0.867579    1.032125    1.286628    1.619042    2.010105    2.431751
    2.846454    3.207004    3.456231    3.562915    3.534132    3.406703    3.267750    3.117463    2.936739    2.707487
    2.424848    2.100602    1.760355    1.436421    1.158900    0.951005    0.828136    0.799160    0.232469    0.390045
    0.651518    1.007595    1.442231    1.929152    2.427633    2.878006    3.207004    3.376754    3.426698    3.395497
    3.307904    3.177295    2.984057    2.698138    2.319509    1.883038    1.436421    1.022443    0.672871    0.408714
    0.243050    0.183275   -0.350594   -0.217067    0.029476    0.382084    0.828136    1.346093    1.899324    2.427633
    2.846454    3.094883    3.201937    3.226952    3.197391    3.112363    2.942253    2.640229    2.202393    1.685829
    1.158900    0.672871    0.260698   -0.057347   -0.269172   -0.367966   -0.846336   -0.746028   -0.526711   -0.193713
    0.243050    0.766393    1.346093    1.929152    2.431751    2.769980    2.941004    3.006662    3.010325    2.958233
    2.821128    2.540778    2.091318    1.532603    0.951005    0.408714   -0.057347   -0.425790   -0.684207   -0.825530
   -1.235357   -1.173244   -0.988154   -0.684207   -0.269172    0.243050    0.828136    1.442231    2.010105    2.436542
    2.680913    2.790259    2.820229    2.790259    2.680913    2.436542    2.010105    1.442231    0.828136    0.243050
   -0.269172   -0.684207   -0.988154   -1.173244   -1.506718   -1.485525   -1.338843   -1.069634   -0.684207   -0.193713
    0.382084    1.007595    1.619042    2.121623    2.443326    2.603370    2.661954    2.652305    2.567701    2.362235
    1.977967    1.426587    0.799160    0.183275   -0.367966   -0.825530   -1.173244   -1.401955   -1.339724   -1.401955
   -1.338843   -1.151738   -0.844764   -0.425790    0.091404    0.682575    1.304058    1.881088    2.318868    2.574964
    2.693040    2.727983    2.699488    2.587565    2.335530    1.896669    1.314471    0.687649    0.092732   -0.426556
   -0.846336   -1.153237   -1.401955   -1.506718   -1.485525   -1.338843   -1.069634   -0.684207   -0.193713    0.382084
    1.007595    1.619042    2.121623    2.443326    2.603370    2.661954    2.652305    2.567701    2.362235    1.977967
    1.426587    0.799160    0.183275   -0.367966   -0.825530   -1.173244   -1.338843   -1.485525   -1.506718   -1.401955
   -1.173244   -0.825530   -0.367966    0.183275    0.799160    1.426587    1.977967    2.362235    2.567701    2.652305
    2.661954    2.603370    2.443326    2.121623    1.619042    1.007595    0.382084   -0.193713   -0.684207   -1.069634
   -1.151738   -1.338843   -1.401955   -1.339724   -1.153237   -0.846336   -0.426556    0.092732    0.687649    1.314471
    1.896669    2.335530    2.587565    2.699488    2.727983    2.693040    2.574964    2.318868    1.881088    1.304058
    0.682575    0.091404   -0.425790   -0.844764   -0.844764   -1.069634   -1.173244   -1.153237   -1.009850   -0.746028
   -0.367966    0.112983    0.676917    1.287797    1.881294    2.361833    2.659331    2.799635    2.846158    2.831621
    2.749870    2.557113    2.195892    1.673176    1.072736    0.478269   -0.057347   -0.504053   -0.425790   -0.684207
   -0.825530   -0.846336   -0.746028   -0.526711   -0.193713    0.243050    0.766393    1.346093    1.929152    2.431751
    2.769980    2.941004    3.006662    3.010325    2.958233    2.821128    2.540778    2.091318    1.532603    0.951005
    0.408714   -0.057347    0.091404   -0.193713   -0.367966   -0.426556   -0.367966   -0.193713    0.091404    0.478269
    0.951005    1.483059    2.030287    2.525007    2.888883    3.094062    3.186923    3.213331    3.186923    3.094062
    2.888883    2.525007    2.030287    1.483059    0.951005    0.478269    0.682575    0.382084    0.183275    0.092732
    0.112983    0.243050    0.478269    0.809281    1.220276    1.685829    2.167478    2.612725    2.964532    3.193986
    3.328280    3.402561    3.414577    3.355535    3.209795    2.931075    2.517916    2.030287    1.532603    1.072736
    1.304058    1.007595    0.799160    0.687649    0.676917    0.766393    0.951005    1.220276    1.556814    1.934651
    2.319509    2.673064    2.962777    3.175543    3.329449    3.458523    3.580007    3.564873    3.462074    3.257980
    2.931075    2.525007    2.091318    1.673176    1.881088    1.619042    1.426587    1.314471    1.287797    1.346093
    1.483059    1.685829    1.934651    2.204222    2.468489    2.707487    2.910490    3.076300    3.213788    3.338480
    3.460517    3.565984    3.584468    3.462074    3.209795    2.888883    2.540778    2.195892    2.318868    2.121623
    1.977967    1.896669    1.881294    1.929152    2.030287    2.167478    2.319509    2.468489    2.606182    2.732830
    2.851683    2.965654    3.077902    3.192845    3.314274    3.441864    3.565984    3.564873    3.355535    3.094062
    2.821128    2.557113    2.574964    2.443326    2.362235    2.335530    2.361833    2.431751    2.525007    2.612725
    2.673064    2.707487    2.732830    2.764578    2.811234    2.875967    2.959279    3.060786    3.179722    3.314274
    3.460517    3.580007    3.414577    3.186923    2.958233    2.749870    2.693040    2.603370    2.567701    2.587565
    2.659331    2.769980    2.888883    2.964532    2.962777    2.910490    2.851683    2.811234    2.799236    2.818872
    2.870205    2.951749    3.060786    3.192845    3.338480    3.458523    3.402561    3.213331    3.010325    2.831621
    2.727983    2.661954    2.652305    2.699488    2.799635    2.941004    3.094062    3.193986    3.175543    3.076300
    2.965654    2.875967    2.818872    2.798473    2.815824    2.870205    2.959279    3.077902    3.213788    3.329449
    3.328280    3.186923    3.006662    2.846158    2.699488    2.652305    2.661954    2.727983    2.846158    3.006662
    3.186923    3.328280    3.329449    3.213788    3.077902    2.959279    2.870205    2.815824    2.798473    2.818872
    2.875967    2.965654    3.076300    3.175543    3.193986    3.094062    2.941004    2.799635    2.587565    2.567701
    2.603370    2.693040    2.831621    3.010325    3.213331    3.402561    3.458523    3.338480    3.192845    3.060786
    2.951749    2.870205    2.818872    2.799236    2.811234    2.851683    2.910490    2.962777    2.964532    2.888883
    2.769980    2.659331    2.335530    2.362235    2.443326    2.574964    2.749870    2.958233    3.186923    3.414577
    3.580007    3.460517    3.314274    3.179722    3.060786    2.959279    2.875967    2.811234    2.764578    2.732830
    2.707487    2.673064    2.612725    2.525007    2.431751    2.361833    1.896669    1.977967    2.121623    2.318868
    2.557113    2.821128    3.094062    3.355535    3.564873    3.565984    3.441864    3.314274    3.192845    3.077902
    2.965654    2.851683    2.732830    2.606182    2.468489    2.319509    2.167478    2.030287    1.929152    1.881294
    1.314471    1.426587    1.619042    1.881088    2.195892    2.540778    2.888883    3.209795    3.462074    3.584468
    3.565984    3.460517    3.338480    3.213788    3.076300    2.910490    2.707487    2.468489    2.204222    1.934651
    1.685829    1.483059    1.346093    1.287797    0.687649    0.799160    1.007595    1.304058    1.673176    2.091318
    2.525007    2.931075    3.257980    3.462074    3.564873    3.580007    3.458523    3.329449    3.175543    2.962777
    2.673064    2.319509    1.934651    1.556814    1.220276    0.951005    0.766393    0.676917    0.092732    0.183275
    0.382084    0.682575    1.072736    1.532603    2.030287    2.517916    2.931075    3.209795    3.355535    3.414577
    3.402561    3.328280    3.193986    2.964532    2.612725    2.167478    1.685829    1.220276    0.809281    0.478269
    0.243050    0.112983   -0.426556   -0.367966   -0.193713    0.091404    0.478269    0.951005    1.483059    2.030287
    2.525007    2.888883    3.094062    3.186923    3.213331    3.186923    3.094062    2.888883    2.525007    2.030287
    1.483059    0.951005    0.478269    0.091404   -0.193713   -0.367966   -0.846336   -0.825530   -0.684207   -0.425790
   -0.057347    0.408714    0.951005    1.532603    2.091318    2.540778    2.821128    2.958233    3.010325    3.006662
    2.941004    2.769980    2.431751    1.929152    1.346093    0.766393    0.243050   -0.193713   -0.526711   -0.746028
   -1.153237   -1.173244   -1.069634   -0.844764   -0.504053   -0.057347    0.478269    1.072736    1.673176    2.195892
    2.557113    2.749870    2.831621    2.846158    2.799635    2.659331    2.361833    1.881294    1.287797    0.676917
    0.112983   -0.367966   -0.746028   -1.009850   -0.909061   -1.009850   -0.988154   -0.844764   -0.583203   -0.210558
    0.260698    0.809281    1.398254    1.965386    2.424656    2.716032    2.862712    2.921653    2.922702    2.859150
    2.685437    2.337304    1.818629    1.218935    0.625800    0.092732   -0.350594   -0.687667   -1.009850   -1.153237
   -1.173244   -1.069634   -0.844764   -0.504053   -0.057347    0.478269    1.072736    1.673176    2.195892    2.557113
    2.749870    2.831621    2.846158    2.799635    2.659331    2.361833    1.881294    1.287797    0.676917    0.112983
   -0.367966   -0.746028   -0.988154   -1.173244   -1.235357   -1.173244   -0.988154   -0.684207   -0.269172    0.243050
    0.828136    1.442231    2.010105    2.436542    2.680913    2.790259    2.820229    2.790259    2.680913    2.436542
    2.010105    1.442231    0.828136    0.243050   -0.269172   -0.684207   -0.844764   -1.069634   -1.173244   -1.153237
   -1.009850   -0.746028   -0.367966    0.112983    0.676917    1.287797    1.881294    2.361833    2.659331    2.799635
    2.846158    2.831621    2.749870    2.557113    2.195892    1.673176    1.072736    0.478269   -0.057347   -0.504053
   -0.583203   -0.844764   -0.988154   -1.009850   -0.909061   -0.687667   -0.350594    0.092732    0.625800    1.218935
    1.818629    2.337304    2.685437    2.859150    2.922702    2.921653    2.862712    2.716032    2.424656    1.965386
    1.398254    0.809281    0.260698   -0.210558   -0.210558   -0.504053   -0.684207   -0.746028   -0.687667   -0.510036
   -0.217067    0.183275    0.676917    1.239010    1.825581    2.362001    2.753485    2.963228    3.045315    3.056056
    3.014156    2.904297    2.679448    2.296940    1.784580    1.220276    0.672871    0.187003    0.260698   -0.057347