 BEGIN_INFO
   Fermi Energy:    8.71408
 END_INFO
 
 BEGIN_BLOCK_BANDGRID_3D
   THIS_FILE_WAS_GENERATED_BY_VASPKIT
   BEGIN_BANDGRID_3D
    24
    21    21    13
    0.0    0.0    0.0
    1.551916939    0.895999663   -0.000000000
   -0.000000000    1.791999325   -0.000000000
    0.000000000    0.000000000    1.231803346
   BAND:      1
   -5.431724   -5.401867   -5.312657   -5.166151   -4.967004   -4.727781   -4.501469   -4.501469   -4.727781   -4.967004
   -5.166151   -5.312657   -5.401867   -5.407016   -5.377215   -5.288340   -5.142305   -4.943745   -4.704984   -4.478194
   -4.477892   -4.704557   -4.943385   -5.142036   -5.288162   -5.377126   -5.333208   -5.304015   -5.216276   -5.071904
   -4.875395   -4.638328   -4.409951   -4.407430   -4.634838   -4.872465   -5.069719   -5.214843   -5.303296   -5.211922
   -5.184083   -5.098705   -4.957742   -4.765314   -4.531893   -4.301006   -4.291806   -4.519698   -4.755181   -4.950213
   -5.093747   -5.181633   -5.045854   -5.020557   -4.939329   -4.804057   -4.618662   -4.392055   -4.158926   -4.134665
   -4.361839   -4.593896   -4.785704   -4.927283   -5.014605   -4.839265   -4.818077   -4.743311   -4.616942   -4.442701
   -4.227890   -3.996129   -3.942032   -4.166010   -4.392722   -4.580049   -4.719122   -4.806129   -4.598102   -4.583116
   -4.517861   -4.404527   -4.246884   -4.051152   -3.830688   -3.723491   -3.939765   -4.158142   -4.339173   -4.475019
   -4.561931   -4.330830   -4.324454   -4.272350   -4.177034   -4.042630   -3.875013   -3.682450   -3.500844   -3.695184
   -3.900462   -4.072191   -4.203483   -4.290360   -4.049316   -4.053867   -4.018642   -3.946563   -3.842196   -3.711870
   -3.563577   -3.408597   -3.457231   -3.637534   -3.794117   -3.917875   -4.003809   -3.772260   -3.787966   -3.771669
   -3.726454   -3.657290   -3.570921   -3.475949   -3.385030   -3.338346   -3.417116   -3.537061   -3.643570   -3.723644
   -3.546788   -3.561412   -3.556414   -3.533950   -3.498758   -3.457478   -3.417880   -3.387920   -3.375246   -3.385912
   -3.420201   -3.467816   -3.513732   -3.546788   -3.513732   -3.467816   -3.420201   -3.385912   -3.375246   -3.387920
   -3.417880   -3.457478   -3.498758   -3.533950   -3.556414   -3.561412   -3.772260   -3.723644   -3.643570   -3.537061
   -3.417116   -3.338346   -3.385030   -3.475949   -3.570921   -3.657290   -3.726454   -3.771669   -3.787966   -4.049316
   -4.003809   -3.917875   -3.794117   -3.637534   -3.457231   -3.408597   -3.563577   -3.711870   -3.842196   -3.946563
   -4.018642   -4.053867   -4.330830   -4.290360   -4.203483   -4.072191   -3.900462   -3.695184   -3.500844   -3.682450
   -3.875013   -4.042630   -4.177034   -4.272350   -4.324454   -4.598102   -4.561931   -4.475019   -4.339173   -4.158142
   -3.939765   -3.723491   -3.830688   -4.051152   -4.246884   -4.404527   -4.517861   -4.583116   -4.839265   -4.806129
   -4.719122   -4.580049   -4.392722   -4.166010   -3.942032   -3.996129   -4.227890   -4.442701   -4.616942   -4.743311
   -4.818077   -5.045854   -5.014605   -4.927283   -4.785704   -4.593896   -4.361839   -4.134665   -4.158926   -4.392055
   -4.618662   -4.804057   -4.939329   -5.020557   -5.211922   -5.181633   -5.093747   -4.950213   -4.755181   -4.519698
   -4.291806   -4.301006   -4.531893   -4.765314   -4.957742   -5.098705   -5.184083   -5.333208   -5.303296   -5.214843
   -5.069719   -4.872465   -4.634838   -4.407430   -4.409951   -4.638328   -4.875395   -5.071904   -5.216276   -5.304015
   -5.407016   -5.377126   -5.288162   -5.142036   -4.943385   -4.704557   -4.477892   -4.478194   -4.704984   -4.943745
   -5.142305   -5.288340   -5.377215   -5.407016   -5.377126   -5.288162   -5.142036   -4.943385   -4.704557   -4.477892
   -4.478194   -4.704984   -4.943745   -5.142305   -5.288340   -5.377215   -5.357720   -5.328061   -5.239696   -5.094497
   -4.897025   -4.659169   -4.431649   -4.431649   -4.659169   -4.897025   -5.094497   -5.239696   -5.328061   -5.260187
   -5.231371   -5.144585   -5.001788   -4.807213   -4.571889   -4.342424   -4.339121   -4.567434   -4.803496   -4.999022
   -5.142768   -5.230467   -5.116466   -5.089449   -5.005795   -4.867368   -4.678177   -4.447908   -4.215963   -4.203284
   -4.431683   -4.664801   -4.857447   -4.999277   -5.086230   -4.930098   -4.906250   -4.827717   -4.696410   -4.516147
   -4.294941   -4.062071   -4.028919   -4.255621   -4.484196   -4.672786   -4.812227   -4.898597   -4.706105   -4.687252
   -4.616555   -4.496048   -4.329475   -4.123474   -3.896063   -3.823505   -4.045308   -4.266865   -4.449907   -4.586312
   -4.672306   -4.451713   -4.440133   -4.380613   -4.275491   -4.128720   -3.946237   -3.738004   -3.599282   -3.810293
   -4.021023   -4.196159   -4.328571   -4.414387   -4.176908   -4.175050   -4.130528   -4.046044   -3.925964   -3.776330
   -3.604990   -3.421301   -3.566901   -3.759969   -3.923181   -4.049612   -4.134931   -3.896353   -3.905907   -3.879586
   -3.820428   -3.733262   -3.624691   -3.503162   -3.382217   -3.364349   -3.510048   -3.651523   -3.767087   -3.849804
   -3.636856   -3.654635   -3.645800   -3.613165   -3.561722   -3.498333   -3.431466   -3.372159   -3.339335   -3.364357
   -3.440094   -3.523610   -3.592156   -3.496105   -3.490267   -3.473833   -3.449966   -3.423717   -3.401214   -3.388190
   -3.388190   -3.401214   -3.423717   -3.449966   -3.473833   -3.490267   -3.636856   -3.592156   -3.523610   -3.440094
   -3.364357   -3.339335   -3.372159   -3.431466   -3.498333   -3.561722   -3.613165   -3.645800   -3.654635   -3.896353
   -3.849804   -3.767087   -3.651523   -3.510048   -3.364349   -3.382217   -3.503162   -3.624691   -3.733262   -3.820428
   -3.879586   -3.905907   -4.176908   -4.134931   -4.049612   -3.923181   -3.759969   -3.566901   -3.421301   -3.604990
   -3.776330   -3.925964   -4.046044   -4.130528   -4.175050   -4.451713   -4.414387   -4.328571   -4.196159   -4.021023
   -3.810293   -3.599282   -3.738004   -3.946237   -4.128720   -4.275491   -4.380613   -4.440133   -4.706105   -4.672306
   -4.586312   -4.449907   -4.266865   -4.045308   -3.823505   -3.896063   -4.123474   -4.329475   -4.496048   -4.616555
   -4.687252   -4.930098   -4.898597   -4.812227   -4.672786   -4.484196   -4.255621   -4.028919   -4.062071   -4.294941
   -4.516147   -4.696410   -4.827717   -4.906250   -5.116466   -5.086230   -4.999277   -4.857447   -4.664801   -4.431683
   -4.203284   -4.215963   -4.447908   -4.678177   -4.867368   -5.005795   -5.089449   -5.260187   -5.230467   -5.142768
   -4.999022   -4.803496   -4.567434   -4.339121   -4.342424   -4.571889   -4.807213   -5.001788   -5.144585   -5.231371
   -5.357720   -5.328061   -5.239696   -5.094497   -4.897025   -4.659169   -4.431649   -4.431649   -4.659169   -4.897025
   -5.094497   -5.239696   -5.328061   -5.407016   -5.377215   -5.288340   -5.142305   -4.943745   -4.704984   -4.478194
   -4.477892   -4.704557   -4.943385   -5.142036   -5.288162   -5.377126   -5.333208   -5.303296   -5.214843   -5.069719
   -4.872465   -4.634838   -4.407430   -4.409951   -4.638328   -4.875395   -5.071904   -5.216276   -5.304015   -5.260187
   -5.230467   -5.142768   -4.999022   -4.803496   -4.567434   -4.339121   -4.342424   -4.571889   -4.807213   -5.001788
   -5.144585   -5.231371   -5.140191   -5.111451   -5.025812   -4.885135   -4.693484   -4.461044   -4.230894   -4.230894
   -4.461044   -4.693484   -4.885135   -5.025812   -5.111451   -4.976114   -4.949505   -4.867649   -4.732414   -4.547680
   -4.322114   -4.090288   -4.079138   -4.308664   -4.536717   -4.724301   -4.862327   -4.946873   -4.772225   -4.749326
   -4.673613   -4.547079   -4.373411   -4.159811   -3.929705   -3.893182   -4.119669   -4.341140   -4.523280   -4.658013
   -4.741619   -4.534734   -4.517614   -4.451098   -4.337394   -4.180290   -3.986026   -3.767614   -3.682164   -3.901875
   -4.113455   -4.288172   -4.418825   -4.501654   -4.272320   -4.263364   -4.209666   -4.113796   -3.979910   -3.813970
   -3.624240   -3.460279   -3.667596   -3.864172   -4.028352   -4.153494   -4.235535   -3.997197   -3.998645   -3.961452
   -3.888513   -3.784484   -3.655826   -3.510827   -3.363726   -3.440932   -3.610912   -3.758890   -3.875638   -3.955969
   -3.728189   -3.740292   -3.721542   -3.674971   -3.605581   -3.520211   -3.427721   -3.342087   -3.310998   -3.396676
   -3.510471   -3.610153   -3.684310   -3.511510   -3.523020   -3.515265   -3.490615   -3.453916   -3.411959   -3.372711
   -3.344508   -3.335364   -3.351032   -3.389195   -3.437436   -3.481442   -3.511510   -3.481442   -3.437436   -3.389195
   -3.351032   -3.335364   -3.344508   -3.372711   -3.411959   -3.453916   -3.490615   -3.515265   -3.523020   -3.728189
   -3.684310   -3.610153   -3.510471   -3.396676   -3.310998   -3.342087   -3.427721   -3.520211   -3.605581   -3.674971
   -3.721542   -3.740292   -3.997197   -3.955969   -3.875638   -3.758890   -3.610912   -3.440932   -3.363726   -3.510827
   -3.655826   -3.784484   -3.888513   -3.961452   -3.998645   -4.272320   -4.235535   -4.153494   -4.028352   -3.864172
   -3.667596   -3.460279   -3.624240   -3.813970   -3.979910   -4.113796   -4.209666   -4.263364   -4.534734   -4.501654
   -4.418825   -4.288172   -4.113455   -3.901875   -3.682164   -3.767614   -3.986026   -4.180290   -4.337394   -4.451098
   -4.517614   -4.772225   -4.741619   -4.658013   -4.523280   -4.341140   -4.119669   -3.893182   -3.929705   -4.159811
   -4.373411   -4.547079   -4.673613   -4.749326   -4.976114   -4.946873   -4.862327   -4.724301   -4.536717   -4.308664
   -4.079138   -4.090288   -4.322114   -4.547680   -4.732414   -4.867649   -4.949505   -5.140191   -5.111451   -5.025812
   -4.885135   -4.693484   -4.461044   -4.230894   -4.230894   -4.461044   -4.693484   -4.885135   -5.025812   -5.111451
   -5.260187   -5.231371   -5.144585   -5.001788   -4.807213   -4.571889   -4.342424   -4.339121   -4.567434   -4.803496
   -4.999022   -5.142768   -5.230467   -5.333208   -5.304015   -5.216276   -5.071904   -4.875395   -4.638328   -4.409951
   -4.407430   -4.634838   -4.872465   -5.069719   -5.214843   -5.303296   -5.357720   -5.328061   -5.239696   -5.094497
   -4.897025   -4.659169   -4.431649   -4.431649   -4.659169   -4.897025   -5.094497   -5.239696   -5.328061   -5.211922
   -5.181633   -5.093747   -4.950213   -4.755181   -4.519698   -4.291806   -4.301006   -4.531893   -4.765314   -4.957742
   -5.098705   -5.184083   -5.116466   -5.086230   -4.999277   -4.857447   -4.664801   -4.431683   -4.203284   -4.215963
   -4.447908   -4.678177   -4.867368   -5.005795   -5.089449   -4.976114   -4.946873   -4.862327   -4.724301   -4.536717
   -4.308664   -4.079138   -4.090288   -4.322114   -4.547680   -4.732414   -4.867649   -4.949505   -4.794479   -4.767586
   -4.687507   -4.556156   -4.377253   -4.158516   -3.928999   -3.928999   -4.158516   -4.377253   -4.556156   -4.687507
   -4.767586   -4.576955   -4.554228   -4.481360   -4.360397   -4.195097   -3.992041   -3.768575   -3.739798   -3.963599
   -4.172472   -4.343733   -4.470435   -4.548831   -4.331168   -4.314848   -4.252545   -4.146630   -4.001153   -3.822126
   -3.619133   -3.534083   -3.747211   -3.941916   -4.102941   -4.223850   -4.300642   -4.067727   -4.060218   -4.012233
   -3.926505   -3.807552   -3.661742   -3.497404   -3.343320   -3.525475   -3.698847   -3.845714   -3.958886   -4.033727
   -3.801683   -3.804615   -3.774012   -3.712891   -3.626245   -3.520884   -3.406087   -3.301490   -3.334517   -3.467169
   -3.591857   -3.693100   -3.764172   -3.559401   -3.570124   -3.556124   -3.520312   -3.467708   -3.405318   -3.342015
   -3.290240   -3.273038   -3.314705   -3.389991   -3.464746   -3.523458   -3.430482   -3.423622   -3.404330   -3.376289
   -3.345429   -3.318915   -3.303532   -3.303532   -3.318915   -3.345429   -3.376289   -3.404330   -3.423622   -3.559401
   -3.523458   -3.464746   -3.389991   -3.314705   -3.273038   -3.290240   -3.342015   -3.405318   -3.467708   -3.520312
   -3.556124   -3.570124   -3.801683   -3.764172   -3.693100   -3.591857   -3.467169   -3.334517   -3.301490   -3.406087
   -3.520884   -3.626245   -3.712891   -3.774012   -3.804615   -4.067727   -4.033727   -3.958886   -3.845714   -3.698847
   -3.525475   -3.343320   -3.497404   -3.661742   -3.807552   -3.926505   -4.012233   -4.060218   -4.331168   -4.300642
   -4.223850   -4.102941   -3.941916   -3.747211   -3.534083   -3.619133   -3.822126   -4.001153   -4.146630   -4.252545
   -4.314848   -4.576955   -4.548831   -4.470435   -4.343733   -4.172472   -3.963599   -3.739798   -3.768575   -3.992041
   -4.195097   -4.360397   -4.481360   -4.554228   -4.794479   -4.767586   -4.687507   -4.556156   -4.377253   -4.158516
   -3.928999   -3.928999   -4.158516   -4.377253   -4.556156   -4.687507   -4.767586   -4.976114   -4.949505   -4.867649
   -4.732414   -4.547680   -4.322114   -4.090288   -4.079138   -4.308664   -4.536717   -4.724301   -4.862327   -4.946873
   -5.116466   -5.089449   -5.005795   -4.867368   -4.678177   -4.447908   -4.215963   -4.203284   -4.431683   -4.664801
   -4.857447   -4.999277   -5.086230   -5.211922   -5.184083   -5.098705   -4.957742   -4.765314   -4.531893   -4.301006
   -4.291806   -4.519698   -4.755181   -4.950213   -5.093747   -5.181633   -5.260187   -5.231371   -5.144585   -5.001788
   -4.807213   -4.571889   -4.342424   -4.339121   -4.567434   -4.803496   -4.999022   -5.142768   -5.230467   -5.260187
   -5.230467   -5.142768   -4.999022   -4.803496   -4.567434   -4.339121   -4.342424   -4.571889   -4.807213   -5.001788
   -5.144585   -5.231371   -5.045854   -5.014605   -4.927283   -4.785704   -4.593896   -4.361839   -4.134665   -4.158926
   -4.392055   -4.618662   -4.804057   -4.939329   -5.020557   -4.930098   -4.898597   -4.812227   -4.672786   -4.484196
   -4.255621   -4.028919   -4.062071   -4.294941   -4.516147   -4.696410   -4.827717   -4.906250   -4.772225   -4.741619
   -4.658013   -4.523280   -4.341140   -4.119669   -3.893182   -3.929705   -4.159811   -4.373411   -4.547079   -4.673613
   -4.749326   -4.576955   -4.548831   -4.470435   -4.343733   -4.172472   -3.963599   -3.739798   -3.768575   -3.992041
   -4.195097   -4.360397   -4.481360   -4.554228   -4.351045   -4.327435   -4.257339   -4.142982   -3.988357   -3.799678
   -3.588779   -3.588779   -3.799678   -3.988357   -4.142982   -4.257339   -4.327435   -4.103913   -4.087221   -4.029083
   -3.932090   -3.800677   -3.641246   -3.462453   -3.407144   -3.594829   -3.763765   -3.904702   -4.011019   -4.078258
   -3.848505   -3.840936   -3.798287   -3.723514   -3.621575   -3.499471   -3.367263   -3.274499   -3.397238   -3.537680
   -3.660306   -3.756214   -3.819951   -3.603450   -3.605531   -3.580190   -3.530518   -3.461658   -3.380797   -3.297894
   -3.233542   -3.251491   -3.340956   -3.435638   -3.515724   -3.573041   -3.410142   -3.413927   -3.399746   -3.370428
   -3.331082   -3.288744   -3.251785   -3.229613   -3.231277   -3.259303   -3.303953   -3.350579   -3.388114   -3.410142
   -3.388114   -3.350579   -3.303953   -3.259303   -3.231277   -3.229613   -3.251785   -3.288744   -3.331082   -3.370428
   -3.399746   -3.413927   -3.603450   -3.573041   -3.515724   -3.435638   -3.340956   -3.251491   -3.233542   -3.297894
   -3.380797   -3.461658   -3.530518   -3.580190   -3.605531   -3.848505   -3.819951   -3.756214   -3.660306   -3.537680
   -3.397238   -3.274499   -3.367263   -3.499471   -3.621575   -3.723514   -3.798287   -3.840936   -4.103913   -4.078258
   -4.011019   -3.904702   -3.763765   -3.594829   -3.407144   -3.462453   -3.641246   -3.800677   -3.932090   -4.029083
   -4.087221   -4.351045   -4.327435   -4.257339   -4.142982   -3.988357   -3.799678   -3.588779   -3.588779   -3.799678
   -3.988357   -4.142982   -4.257339   -4.327435   -4.576955   -4.554228   -4.481360   -4.360397   -4.195097   -3.992041
   -3.768575   -3.739798   -3.963599   -4.172472   -4.343733   -4.470435   -4.548831   -4.772225   -4.749326   -4.673613
   -4.547079   -4.373411   -4.159811   -3.929705   -3.893182   -4.119669   -4.341140   -4.523280   -4.658013   -4.741619
   -4.930098   -4.906250   -4.827717   -4.696410   -4.516147   -4.294941   -4.062071   -4.028919   -4.255621   -4.484196
   -4.672786   -4.812227   -4.898597   -5.045854   -5.020557   -4.939329   -4.804057   -4.618662   -4.392055   -4.158926
   -4.134665   -4.361839   -4.593896   -4.785704   -4.927283   -5.014605   -5.116466   -5.089449   -5.005795   -4.867368
   -4.678177   -4.447908   -4.215963   -4.203284   -4.431683   -4.664801   -4.857447   -4.999277   -5.086230   -5.140191
   -5.111451   -5.025812   -4.885135   -4.693484   -4.461044   -4.230894   -4.230894   -4.461044   -4.693484   -4.885135
   -5.025812   -5.111451   -5.116466   -5.086230   -4.999277   -4.857447   -4.664801   -4.431683   -4.203284   -4.215963
   -4.447908   -4.678177   -4.867368   -5.005795   -5.089449   -4.839265   -4.806129   -4.719122   -4.580049   -4.392722
   -4.166010   -3.942032   -3.996129   -4.227890   -4.442701   -4.616942   -4.743311   -4.818077   -4.706105   -4.672306
   -4.586312   -4.449907   -4.266865   -4.045308   -3.823505   -3.896063   -4.123474   -4.329475   -4.496048   -4.616555
   -4.687252   -4.534734   -4.501654   -4.418825   -4.288172   -4.113455   -3.901875   -3.682164   -3.767614   -3.986026
   -4.180290   -4.337394   -4.451098   -4.517614   -4.331168   -4.300642   -4.223850   -4.102941   -3.941916   -3.747211
   -3.534083   -3.619133   -3.822126   -4.001153   -4.146630   -4.252545   -4.314848   -4.103913   -4.078258   -4.011019
   -3.904702   -3.763765   -3.594829   -3.407144   -3.462453   -3.641246   -3.800677   -3.932090   -4.029083   -4.087221
   -3.864514   -3.846211   -3.792278   -3.705621   -3.591306   -3.456843   -3.315188   -3.315188   -3.456843   -3.591306
   -3.705621   -3.792278   -3.846211   -3.628148   -3.619050   -3.581384   -3.518335   -3.435274   -3.340030   -3.245640
   -3.207405   -3.289338   -3.391537   -3.484635   -3.558671   -3.607635   -3.417610   -3.416620   -3.394891   -3.355526
   -3.303709   -3.246719   -3.194335   -3.163437   -3.180521   -3.236318   -3.300196   -3.356444   -3.397020   -3.304828
   -3.297518   -3.276877   -3.246524   -3.212459   -3.182423   -3.164561   -3.164561   -3.182423   -3.212459   -3.246524
   -3.276877   -3.297518   -3.417610   -3.397020   -3.356444   -3.300196   -3.236318   -3.180521   -3.163437   -3.194335
   -3.246719   -3.303709   -3.355526   -3.394891   -3.416620   -3.628148   -3.607635   -3.558671   -3.484635   -3.391537
   -3.289338   -3.207405   -3.245640   -3.340030   -3.435274   -3.518335   -3.581384   -3.619050   -3.864514   -3.846211
   -3.792278   -3.705621   -3.591306   -3.456843   -3.315188   -3.315188   -3.456843   -3.591306   -3.705621   -3.792278
   -3.846211   -4.103913   -4.087221   -4.029083   -3.932090   -3.800677   -3.641246   -3.462453   -3.407144   -3.594829
   -3.763765   -3.904702   -4.011019   -4.078258   -4.331168   -4.314848   -4.252545   -4.146630   -4.001153   -3.822126
   -3.619133   -3.534083   -3.747211   -3.941916   -4.102941   -4.223850   -4.300642   -4.534734   -4.517614   -4.451098
   -4.337394   -4.180290   -3.986026   -3.767614   -3.682164   -3.901875   -4.113455   -4.288172   -4.418825   -4.501654
   -4.706105   -4.687252   -4.616555   -4.496048   -4.329475   -4.123474   -3.896063   -3.823505   -4.045308   -4.266865
   -4.449907   -4.586312   -4.672306   -4.839265   -4.818077   -4.743311   -4.616942   -4.442701   -4.227890   -3.996129
   -3.942032   -4.166010   -4.392722   -4.580049   -4.719122   -4.806129   -4.930098   -4.906250   -4.827717   -4.696410
   -4.516147   -4.294941   -4.062071   -4.028919   -4.255621   -4.484196   -4.672786   -4.812227   -4.898597   -4.976114
   -4.949505   -4.867649   -4.732414   -4.547680   -4.322114   -4.090288   -4.079138   -4.308664   -4.536717   -4.724301
   -4.862327   -4.946873   -4.976114   -4.946873   -4.862327   -4.724301   -4.536717   -4.308664   -4.079138   -4.090288
   -4.322114   -4.547680   -4.732414   -4.867649   -4.949505   -4.930098   -4.898597   -4.812227   -4.672786   -4.484196
   -4.255621   -4.028919   -4.062071   -4.294941   -4.516147   -4.696410   -4.827717   -4.906250   -4.598102   -4.561931
   -4.475019   -4.339173   -4.158142   -3.939765   -3.723491   -3.830688   -4.051152   -4.246884   -4.404527   -4.517861
   -4.583116   -4.451713   -4.414387   -4.328571   -4.196159   -4.021023   -3.810293   -3.599282   -3.738004   -3.946237
   -4.128720   -4.275491   -4.380613   -4.440133   -4.272320   -4.235535   -4.153494   -4.028352   -3.864172   -3.667596
   -3.460279   -3.624240   -3.813970   -3.979910   -4.113796   -4.209666   -4.263364   -4.067727   -4.033727   -3.958886
   -3.845714   -3.698847   -3.525475   -3.343320   -3.497404   -3.661742   -3.807552   -3.926505   -4.012233   -4.060218
   -3.848505   -3.819951   -3.756214   -3.660306   -3.537680   -3.397238   -3.274499   -3.367263   -3.499471   -3.621575
   -3.723514   -3.798287   -3.840936   -3.628148   -3.607635   -3.558671   -3.484635   -3.391537   -3.289338   -3.207405
   -3.245640   -3.340030   -3.435274   -3.518335   -3.581384   -3.619050   -3.422877   -3.411668   -3.379183   -3.328849
   -3.266430   -3.200584   -3.147615   -3.147615   -3.200584   -3.266430   -3.328849   -3.379183   -3.411668   -3.257578
   -3.252986   -3.234005   -3.203770   -3.167359   -3.131486   -3.104340   -3.096113   -3.113238   -3.147680   -3.186966
   -3.222049   -3.246819   -3.257578   -3.246819   -3.222049   -3.186966   -3.147680   -3.113238   -3.096113   -3.104340
   -3.131486   -3.167359   -3.203770   -3.234005   -3.252986   -3.422877   -3.411668   -3.379183   -3.328849   -3.266430
   -3.200584   -3.147615   -3.147615   -3.200584   -3.266430   -3.328849   -3.379183   -3.411668   -3.628148   -3.619050
   -3.581384   -3.518335   -3.435274   -3.340030   -3.245640   -3.207405   -3.289338   -3.391537   -3.484635   -3.558671
   -3.607635   -3.848505   -3.840936   -3.798287   -3.723514   -3.621575   -3.499471   -3.367263   -3.274499   -3.397238
   -3.537680   -3.660306   -3.756214   -3.819951   -4.067727   -4.060218   -4.012233   -3.926505   -3.807552   -3.661742
   -3.497404   -3.343320   -3.525475   -3.698847   -3.845714   -3.958886   -4.033727   -4.272320   -4.263364   -4.209666
   -4.113796   -3.979910   -3.813970   -3.624240   -3.460279   -3.667596   -3.864172   -4.028352   -4.153494   -4.235535
   -4.451713   -4.440133   -4.380613   -4.275491   -4.128720   -3.946237   -3.738004   -3.599282   -3.810293   -4.021023
   -4.196159   -4.328571   -4.414387   -4.598102   -4.583116   -4.517861   -4.404527   -4.246884   -4.051152   -3.830688
   -3.723491   -3.939765   -4.158142   -4.339173   -4.475019   -4.561931   -4.706105   -4.687252   -4.616555   -4.496048
   -4.329475   -4.123474   -3.896063   -3.823505   -4.045308   -4.266865   -4.449907   -4.586312   -4.672306   -4.772225
   -4.749326   -4.673613   -4.547079   -4.373411   -4.159811   -3.929705   -3.893182   -4.119669   -4.341140   -4.523280
   -4.658013   -4.741619   -4.794479   -4.767586   -4.687507   -4.556156   -4.377253   -4.158516   -3.928999   -3.928999
   -4.158516   -4.377253   -4.556156   -4.687507   -4.767586   -4.772225   -4.741619   -4.658013   -4.523280   -4.341140
   -4.119669   -3.893182   -3.929705   -4.159811   -4.373411   -4.547079   -4.673613   -4.749326   -4.706105   -4.672306
   -4.586312   -4.449907   -4.266865   -4.045308   -3.823505   -3.896063   -4.123474   -4.329475   -4.496048   -4.616555
   -4.687252   -4.330830   -4.290360   -4.203483   -4.072191   -3.900462   -3.695184   -3.500844   -3.682450   -3.875013
   -4.042630   -4.177034   -4.272350   -4.324454   -4.176908   -4.134931   -4.049612   -3.923181   -3.759969   -3.566901
   -3.421301   -3.604990   -3.776330   -3.925964   -4.046044   -4.130528   -4.175050   -3.997197   -3.955969   -3.875638
   -3.758890   -3.610912   -3.440932   -3.363726   -3.510827   -3.655826   -3.784484   -3.888513   -3.961452   -3.998645
   -3.801683   -3.764172   -3.693100   -3.591857   -3.467169   -3.334517   -3.301490   -3.406087   -3.520884   -3.626245
   -3.712891   -3.774012   -3.804615   -3.603450   -3.573041   -3.515724   -3.435638   -3.340956   -3.251491   -3.233542
   -3.297894   -3.380797   -3.461658   -3.530518   -3.580190   -3.605531   -3.417610   -3.397020   -3.356444   -3.300196
   -3.236318   -3.180521   -3.163437   -3.194335   -3.246719   -3.303709   -3.355526   -3.394891   -3.416620   -3.257578
   -3.246819   -3.222049   -3.186966   -3.147680   -3.113238   -3.096113   -3.104340   -3.131486   -3.167359   -3.203770
   -3.234005   -3.252986   -3.129269   -3.124138   -3.109815   -3.089252   -3.067044   -3.048309   -3.037603   -3.037603
   -3.048309   -3.067044   -3.089252   -3.109815   -3.124138   -3.257578   -3.252986   -3.234005   -3.203770   -3.167359
   -3.131486   -3.104340   -3.096113   -3.113238   -3.147680   -3.186966   -3.222049   -3.246819   -3.417610   -3.416620
   -3.394891   -3.355526   -3.303709   -3.246719   -3.194335   -3.163437   -3.180521   -3.236318   -3.300196   -3.356444
   -3.397020   -3.603450   -3.605531   -3.580190   -3.530518   -3.461658   -3.380797   -3.297894   -3.233542   -3.251491
   -3.340956   -3.435638   -3.515724   -3.573041   -3.801683   -3.804615   -3.774012   -3.712891   -3.626245   -3.520884
   -3.406087   -3.301490   -3.334517   -3.467169   -3.591857   -3.693100   -3.764172   -3.997197   -3.998645   -3.961452
   -3.888513   -3.784484   -3.655826   -3.510827   -3.363726   -3.440932   -3.610912   -3.758890   -3.875638   -3.955969
   -4.176908   -4.175050   -4.130528   -4.046044   -3.925964   -3.776330   -3.604990   -3.421301   -3.566901   -3.759969
   -3.923181   -4.049612   -4.134931   -4.330830   -4.324454   -4.272350   -4.177034   -4.042630   -3.875013   -3.682450
   -3.500844   -3.695184   -3.900462   -4.072191   -4.203483   -4.290360   -4.451713   -4.440133   -4.380613   -4.275491
   -4.128720   -3.946237   -3.738004   -3.599282   -3.810293   -4.021023   -4.196159   -4.328571   -4.414387   -4.534734
   -4.517614   -4.451098   -4.337394   -4.180290   -3.986026   -3.767614   -3.682164   -3.901875   -4.113455   -4.288172
   -4.418825   -4.501654   -4.576955   -4.554228   -4.481360   -4.360397   -4.195097   -3.992041   -3.768575   -3.739798
   -3.963599   -4.172472   -4.343733   -4.470435   -4.548831   -4.576955   -4.548831   -4.470435   -4.343733   -4.172472
   -3.963599   -3.739798   -3.768575   -3.992041   -4.195097   -4.360397   -4.481360   -4.554228   -4.534734   -4.501654
   -4.418825   -4.288172   -4.113455   -3.901875   -3.682164   -3.767614   -3.986026   -4.180290   -4.337394   -4.451098
   -4.517614   -4.451713   -4.414387   -4.328571   -4.196159   -4.021023   -3.810293   -3.599282   -3.738004   -3.946237
   -4.128720   -4.275491   -4.380613   -4.440133   -4.049316   -4.003809   -3.917875   -3.794117   -3.637534   -3.457231
   -3.408597   -3.563577   -3.711870   -3.842196   -3.946563   -4.018642   -4.053867   -3.896353   -3.849804   -3.767087
   -3.651523   -3.510048   -3.364349   -3.382217   -3.503162   -3.624691   -3.733262   -3.820428   -3.879586   -3.905907
   -3.728189   -3.684310   -3.610153   -3.510471   -3.396676   -3.310998   -3.342087   -3.427721   -3.520211   -3.605581
   -3.674971   -3.721542   -3.740292   -3.559401   -3.523458   -3.464746   -3.389991   -3.314705   -3.273038   -3.290240
   -3.342015   -3.405318   -3.467708   -3.520312   -3.556124   -3.570124   -3.410142   -3.388114   -3.350579   -3.303953
   -3.259303   -3.231277   -3.229613   -3.251785   -3.288744   -3.331082   -3.370428   -3.399746   -3.413927   -3.304828
   -3.297518   -3.276877   -3.246524   -3.212459   -3.182423   -3.164561   -3.164561   -3.182423   -3.212459   -3.246524
   -3.276877   -3.297518   -3.257578   -3.252986   -3.234005   -3.203770   -3.167359   -3.131486   -3.104340   -3.096113
   -3.113238   -3.147680   -3.186966   -3.222049   -3.246819   -3.257578   -3.246819   -3.222049   -3.186966   -3.147680
   -3.113238   -3.096113   -3.104340   -3.131486   -3.167359   -3.203770   -3.234005   -3.252986   -3.304828   -3.297518
   -3.276877   -3.246524   -3.212459   -3.182423   -3.164561   -3.164561   -3.182423   -3.212459   -3.246524   -3.276877
   -3.297518   -3.410142   -3.413927   -3.399746   -3.370428   -3.331082   -3.288744   -3.251785   -3.229613   -3.231277
   -3.259303   -3.303953   -3.350579   -3.388114   -3.559401   -3.570124   -3.556124   -3.520312   -3.467708   -3.405318
   -3.342015   -3.290240   -3.273038   -3.314705   -3.389991   -3.464746   -3.523458   -3.728189   -3.740292   -3.721542
   -3.674971   -3.605581   -3.520211   -3.427721   -3.342087   -3.310998   -3.396676   -3.510471   -3.610153   -3.684310
   -3.896353   -3.905907   -3.879586   -3.820428   -3.733262   -3.624691   -3.503162   -3.382217   -3.364349   -3.510048
   -3.651523   -3.767087   -3.849804   -4.049316   -4.053867   -4.018642   -3.946563   -3.842196   -3.711870   -3.563577
   -3.408597   -3.457231   -3.637534   -3.794117   -3.917875   -4.003809   -4.176908   -4.175050   -4.130528   -4.046044
   -3.925964   -3.776330   -3.604990   -3.421301   -3.566901   -3.759969   -3.923181   -4.049612   -4.134931   -4.272320
   -4.263364   -4.209666   -4.113796   -3.979910   -3.813970   -3.624240   -3.460279   -3.667596   -3.864172   -4.028352
   -4.153494   -4.235535   -4.331168   -4.314848   -4.252545   -4.146630   -4.001153   -3.822126   -3.619133   -3.534083
   -3.747211   -3.941916   -4.102941   -4.223850   -4.300642   -4.351045   -4.327435   -4.257339   -4.142982   -3.988357
   -3.799678   -3.588779   -3.588779   -3.799678   -3.988357   -4.142982   -4.257339   -4.327435   -4.331168   -4.300642
   -4.223850   -4.102941   -3.941916   -3.747211   -3.534083   -3.619133   -3.822126   -4.001153   -4.146630   -4.252545
   -4.314848   -4.272320   -4.235535   -4.153494   -4.028352   -3.864172   -3.667596   -3.460279   -3.624240   -3.813970
   -3.979910   -4.113796   -4.209666   -4.263364   -4.176908   -4.134931   -4.049612   -3.923181   -3.759969   -3.566901